
                                 *****************
                                 * O   R   C   A *
                                 *****************

           --- An Ab Initio, DFT and Semiempirical electronic structure package ---

                  #######################################################
                  #                        -***-                        #
                  #  Department of molecular theory and spectroscopy    #
                  #              Directorship: Frank Neese              #
                  # Max Planck Institute for Chemical Energy Conversion #
                  #                  D-45470 Muelheim/Ruhr              #
                  #                       Germany                       #
                  #                                                     #
                  #                  All rights reserved                #
                  #                        -***-                        #
                  #######################################################


                         Program Version 4.0.0 -  RELEASE  -


 With contributions from (in alphabetic order):
   Daniel Aravena         : Magnetic Properties
   Michael Atanasov       : Ab Initio Ligand Field Theory
   Ute Becker             : Parallelization
   Martin Brehm           : Molecular dynamics
   Dmytro Bykov           : SCF Hessian
   Vijay G. Chilkuri      : MRCI spin determinant printing
   Dipayan Datta          : RHF DLPNO-CCSD density
   Achintya Kumar Dutta   : EOM-CC, STEOM-CC
   Dmitry Ganyushin       : Spin-Orbit,Spin-Spin,Magnetic field MRCI
   Yang Guo               : DLPNO-NEVPT2, CIM, IAO-localization
   Andreas Hansen         : Spin unrestricted coupled pair/coupled cluster methods
   Lee Huntington         : MR-EOM, pCC
   Robert Izsak           : Overlap fitted RIJCOSX, COSX-SCS-MP3, EOM
   Christian Kollmar      : KDIIS, OOCD, Brueckner-CCSD(T), CCSD density
   Simone Kossmann        : Meta GGA functionals, TD-DFT gradient, OOMP2, MP2 Hessian
   Martin Krupicka        : AUTO-CI
   Dagmar Lenk            : GEPOL surface
   Dimitrios Liakos       : Extrapolation schemes; parallel MDCI
   Dimitrios Manganas     : ROCIS; embedding schemes
   Dimitrios Pantazis     : SARC Basis sets
   Taras Petrenko         : DFT Hessian,TD-DFT gradient, ASA, ECA, R-Raman, ABS, FL, XAS/XES, NRVS
   Peter Pinski           : DLPNO-MP2
   Christoph Reimann      : Effective Core Potentials
   Marius Retegan         : Local ZFS, SOC
   Christoph Riplinger    : Optimizer, TS searches, QM/MM, DLPNO-CCSD(T), (RO)-DLPNO pert. Triples
   Tobias Risthaus        : Range-separated hybrids, TD-DFT gradient, RPA, STAB
   Michael Roemelt        : Restricted open shell CIS
   Masaaki Saitow         : Open-shell DLPNO
   Barbara Sandhoefer     : DKH picture change effects
   Kantharuban Sivalingam : CASSCF convergence, NEVPT2, FIC-MRCI
   Georgi Stoychev        : AutoAux
   Boris Wezisla          : Elementary symmetry handling
   Frank Wennmohs         : Technical directorship


 We gratefully acknowledge several colleagues who have allowed us to
 interface, adapt or use parts of their codes:
   Stefan Grimme, W. Hujo, H. Kruse,             : VdW corrections, initial TS optimization,
                  C. Bannwarth                     DFT functionals, gCP, sTDA/sTD-DF
   Ed Valeev                                     : LibInt (2-el integral package), F12 methods
   Garnet Chan, S. Sharma, J. Yang, R. Olivares  : DMRG
   Ulf Ekstrom                                   : XCFun DFT Library
   Mihaly Kallay                                 : mrcc  (arbitrary order and MRCC methods)
   Jiri Pittner, Ondrej Demel                    : Mk-CCSD
   Frank Weinhold                                : gennbo (NPA and NBO analysis)
   Christopher J. Cramer and Donald G. Truhlar   : smd solvation model


 Your calculation uses the libint2 library for the computation of 2-el integrals
 For citations please refer to: http://libint.valeyev.net

 This ORCA versions uses:
   CBLAS   interface :  Fast vector & matrix operations
   LAPACKE interface :  Fast linear algebra routines




*****************************************
The coordinations will be read from file: tryptophan.xyz
*****************************************


Your calculation utilizes the basis: def2-SVP
   F. Weigend and R. Ahlrichs, Phys. Chem. Chem. Phys. 7, 3297 (2005).

================================================================================
                                        WARNINGS
                       Please study these warnings very carefully!
================================================================================

Warning: TCutStore was < 0. Adjusted to Thresh (uncritical)

WARNING: Geometry Optimization
  ===> : Switching off AutoStart
         For restart on a previous wavefunction, please use MOREAD

INFO   : the flag for use of LIBINT has been found!

================================================================================
                                       INPUT FILE
================================================================================
NAME = tryptophan.inp
|  1> ! PBE0
|  2> ! opt anfreq
|  3> * xyzfile 0 1 tryptophan.xyz **                         ****END OF INPUT****
================================================================================

                       *****************************
                       * Geometry Optimization Run *
                       *****************************

Geometry optimization settings:
Update method            Update   .... BFGS
Choice of coordinates    CoordSys .... Redundant Internals
Initial Hessian          InHess   .... Almoef's Model

Convergence Tolerances:
Energy Change            TolE     .... 5.0000e-006 Eh
Max. Gradient            TolMAXG  .... 3.0000e-004 Eh/bohr
RMS Gradient             TolRMSG  .... 1.0000e-004 Eh/bohr
Max. Displacement        TolMAXD  .... 4.0000e-003 bohr
RMS Displacement         TolRMSD  .... 2.0000e-003 bohr

------------------------------------------------------------------------------
                        ORCA OPTIMIZATION COORDINATE SETUP
------------------------------------------------------------------------------

The optimization will be done in new redundant internal coordinates
Making redundant internal coordinates   ...  (new redundants) done
Evaluating the initial hessian          ...  (Almloef) done
Evaluating the coordinates              ...  done
Calculating the B-matrix                .... done
Calculating the G-matrix                .... done
Diagonalizing the G-matrix              .... done
Small eigenvalue found = 9.771e-003
Small eigenvalue found = 1.538e-002
The first mode is                       ....   68
The number of degrees of freedom        ....   75

    -----------------------------------------------------------------
                    Redundant Internal Coordinates


    -----------------------------------------------------------------
         Definition                    Initial Value    Approx d2E/dq
    -----------------------------------------------------------------
      1. B(C   1,C   0)                  1.4089         0.582877   
      2. B(C   2,C   1)                  1.3874         0.630736   
      3. B(C   3,C   2)                  1.3990         0.604444   
      4. B(C   4,C   3)                  1.4192         0.561180   
      5. B(C   5,C   4)                  1.4059         0.589325   
      6. B(C   5,C   0)                  1.3868         0.632148   
      7. B(C   6,C   4)                  1.4435         0.513244   
      8. B(C   7,C   6)                  1.3790         0.650603   
      9. B(N   8,C   7)                  1.3704         0.601338   
     10. B(N   8,C   3)                  1.3721         0.597548   
     11. B(C   9,C   6)                  1.4967         0.422203   
     12. B(C  10,C   9)                  1.5436         0.355304   
     13. B(C  11,C  10)                  1.5350         0.366788   
     14. B(O  12,C  11)                  1.2003         1.123388   
     15. B(O  13,C  11)                  1.3367         0.680546   
     16. B(N  14,C  10)                  1.4417         0.462883   
     17. B(H  15,C   0)                  1.0923         0.357006   
     18. B(H  16,C   1)                  1.0926         0.356652   
     19. B(H  17,C   2)                  1.0925         0.356832   
     20. B(H  18,C   5)                  1.0928         0.356416   
     21. B(H  19,C   7)                  1.0891         0.361346   
     22. B(H  20,N   8)                  1.0096         0.433351   
     23. B(H  21,C   9)                  1.1020         0.344616   
     24. B(H  22,C   9)                  1.1033         0.342955   
     25. B(H  23,C  10)                  1.1064         0.339015   
     26. B(H  24,O  13)                  0.9740         0.493813   
     27. B(H  25,N  14)                  1.0206         0.416222   
     28. B(H  26,N  14)                  1.0189         0.418843   
     29. A(C   5,C   0,H  15)          119.6481         0.353553   
     30. A(C   1,C   0,C   5)          121.1397         0.430775   
     31. A(C   1,C   0,H  15)          119.2121         0.348739   
     32. A(C   2,C   1,H  16)          119.3605         0.353360   
     33. A(C   0,C   1,C   2)          121.2979         0.430602   
     34. A(C   0,C   1,H  16)          119.3412         0.348681   
     35. A(C   1,C   2,C   3)          117.4447         0.433423   
     36. A(C   1,C   2,H  17)          121.1595         0.353390   
     37. A(C   3,C   2,H  17)          121.3957         0.350855   
     38. A(C   2,C   3,C   4)          122.2109         0.424433   
     39. A(C   4,C   3,N   8)          107.3379         0.420810   
     40. A(C   2,C   3,N   8)          130.4510         0.426435   
     41. A(C   3,C   4,C   5)          118.9921         0.422516   
     42. A(C   5,C   4,C   6)          133.8654         0.415843   
     43. A(C   3,C   4,C   6)          107.1357         0.412243   
     44. A(C   0,C   5,C   4)          118.9092         0.431627   
     45. A(C   4,C   5,H  18)          120.6494         0.349289   
     46. A(C   0,C   5,H  18)          120.4396         0.353454   
     47. A(C   7,C   6,C   9)          127.3996         0.408793   
     48. A(C   4,C   6,C   9)          126.7027         0.392081   
     49. A(C   4,C   6,C   7)          105.8830         0.423244   
     50. A(C   6,C   7,H  19)          128.9921         0.356011   
     51. A(C   6,C   7,N   8)          110.1714         0.432594   
     52. A(N   8,C   7,H  19)          120.8347         0.349136   
     53. A(C   3,N   8,C   7)          109.4715         0.423269   
     54. A(C   7,N   8,H  20)          125.1282         0.356900   
     55. A(C   3,N   8,H  20)          125.3882         0.356517   
     56. A(H  21,C   9,H  22)          106.3528         0.286647   
     57. A(C  10,C   9,H  22)          109.1737         0.319108   
     58. A(C   6,C   9,H  22)          109.8585         0.328271   
     59. A(C  10,C   9,H  21)          105.4467         0.319360   
     60. A(C   6,C   9,H  21)          109.7306         0.328533   
     61. A(C   6,C   9,C  10)          115.7998         0.367873   
     62. A(C  11,C  10,N  14)          112.7342         0.373438   
     63. A(N  14,C  10,H  23)          108.2231         0.330662   
     64. A(C  11,C  10,H  23)          105.8140         0.320166   
     65. A(C   9,C  10,H  23)          107.3359         0.318507   
     66. A(C   9,C  10,C  11)          112.5359         0.359132   
     67. A(C   9,C  10,N  14)          109.8858         0.371397   
     68. A(O  12,C  11,O  13)          121.1539         0.485562   
     69. A(C  10,C  11,O  13)          116.2194         0.399365   
     70. A(C  10,C  11,O  12)          122.6114         0.436649   
     71. A(C  11,O  13,H  24)          109.9211         0.372775   
     72. A(H  25,N  14,H  26)          103.9349         0.299822   
     73. A(C  10,N  14,H  26)          108.7857         0.339555   
     74. A(C  10,N  14,H  25)          108.6613         0.339199   
     75. D(H  16,C   1,C   0,H  15)     -0.2581         0.023353   
     76. D(C   2,C   1,C   0,H  15)    179.5066         0.023353   
     77. D(C   2,C   1,C   0,C   5)     -0.3528         0.023353   
     78. D(H  16,C   1,C   0,C   5)    179.8825         0.023353   
     79. D(H  17,C   2,C   1,C   0)   -179.7647         0.027588   
     80. D(C   3,C   2,C   1,H  16)    179.8938         0.027588   
     81. D(C   3,C   2,C   1,C   0)      0.1291         0.027588   
     82. D(H  17,C   2,C   1,H  16)     -0.0000         0.027588   
     83. D(N   8,C   3,C   2,H  17)      0.6116         0.025207   
     84. D(N   8,C   3,C   2,C   1)   -179.2819         0.025207   
     85. D(C   4,C   3,C   2,C   1)      0.5002         0.025207   
     86. D(C   4,C   3,C   2,H  17)   -179.6063         0.025207   
     87. D(C   5,C   4,C   3,N   8)    178.9218         0.021575   
     88. D(C   6,C   4,C   3,C   2)    179.9230         0.021575   
     89. D(C   5,C   4,C   3,C   2)     -0.9046         0.021575   
     90. D(C   6,C   4,C   3,N   8)     -0.2506         0.021575   
     91. D(H  18,C   5,C   4,C   6)      0.0556         0.023898   
     92. D(C   0,C   5,C   4,C   6)    179.5631         0.023898   
     93. D(C   0,C   5,C   4,C   3)      0.6601         0.023898   
     94. D(H  18,C   5,C   0,H  15)     -0.4076         0.027719   
     95. D(H  18,C   5,C   4,C   3)   -178.8475         0.023898   
     96. D(H  18,C   5,C   0,C   1)    179.4512         0.027719   
     97. D(C   4,C   5,C   0,H  15)   -179.9162         0.027719   
     98. D(C   4,C   5,C   0,C   1)     -0.0574         0.027719   
     99. D(C   9,C   6,C   4,C   5)     -0.0708         0.017956   
    100. D(C   7,C   6,C   4,C   5)   -178.7569         0.017956   
    101. D(C   7,C   6,C   4,C   3)      0.2390         0.017956   
    102. D(C   9,C   6,C   4,C   3)    178.9251         0.017956   
    103. D(H  19,C   7,C   6,C   4)    179.3607         0.029476   
    104. D(N   8,C   7,C   6,C   9)   -178.8151         0.029476   
    105. D(N   8,C   7,C   6,C   4)     -0.1411         0.029476   
    106. D(H  19,C   7,C   6,C   9)      0.6867         0.029476   
    107. D(H  20,N   8,C   7,H  19)      1.6471         0.029147   
    108. D(C   3,N   8,C   7,H  19)   -179.5638         0.029147   
    109. D(C   3,N   8,C   7,C   6)     -0.0148         0.029147   
    110. D(H  20,N   8,C   3,C   4)    178.9532         0.028755   
    111. D(H  20,N   8,C   3,C   2)     -1.2399         0.028755   
    112. D(H  20,N   8,C   7,C   6)   -178.8039         0.029147   
    113. D(C   7,N   8,C   3,C   4)      0.1680         0.028755   
    114. D(C   7,N   8,C   3,C   2)    179.9749         0.028755   
    115. D(H  22,C   9,C   6,C   7)     11.1915         0.013177   
    116. D(H  22,C   9,C   6,C   4)   -167.2176         0.013177   
    117. D(H  21,C   9,C   6,C   7)    127.7788         0.013177   
    118. D(H  21,C   9,C   6,C   4)    -50.6304         0.013177   
    119. D(C  10,C   9,C   6,C   7)   -113.0343         0.013177   
    120. D(C  10,C   9,C   6,C   4)     68.5565         0.013177   
    121. D(H  23,C  10,C   9,H  21)     76.2417         0.010147   
    122. D(H  23,C  10,C   9,C   6)    -45.2655         0.010147   
    123. D(N  14,C  10,C   9,H  22)     72.6843         0.010147   
    124. D(N  14,C  10,C   9,H  21)    -41.2282         0.010147   
    125. D(N  14,C  10,C   9,C   6)   -162.7354         0.010147   
    126. D(C  11,C  10,C   9,H  22)    -53.8304         0.010147   
    127. D(C  11,C  10,C   9,H  21)   -167.7429         0.010147   
    128. D(H  23,C  10,C   9,H  22)   -169.8458         0.010147   
    129. D(C  11,C  10,C   9,C   6)     70.7499         0.010147   
    130. D(O  13,C  11,C  10,H  23)     64.4025         0.010087   
    131. D(O  13,C  11,C  10,N  14)   -177.4933         0.010087   
    132. D(O  13,C  11,C  10,C   9)    -52.5226         0.010087   
    133. D(O  12,C  11,C  10,H  23)   -114.1928         0.010087   
    134. D(O  12,C  11,C  10,N  14)      3.9114         0.010087   
    135. D(O  12,C  11,C  10,C   9)    128.8821         0.010087   
    136. D(H  24,O  13,C  11,O  12)   -174.4497         0.034501   
    137. D(H  24,O  13,C  11,C  10)      6.9329         0.034501   
    138. D(H  26,N  14,C  10,H  23)     64.3077         0.018294   
    139. D(H  26,N  14,C  10,C  11)    -52.3734         0.018294   
    140. D(H  26,N  14,C  10,C   9)   -178.7762         0.018294   
    141. D(H  25,N  14,C  10,H  23)    176.8498         0.018294   
    142. D(H  25,N  14,C  10,C  11)     60.1687         0.018294   
    143. D(H  25,N  14,C  10,C   9)    -66.2341         0.018294   
    -----------------------------------------------------------------

Number of atoms                         .... 27
Number of degrees of freedom            .... 143

         *************************************************************
         *                GEOMETRY OPTIMIZATION CYCLE   1            *
         *************************************************************
---------------------------------
CARTESIAN COORDINATES (ANGSTROEM)
---------------------------------
  C      2.295642   -0.203970   -1.056335
  C      2.201288    1.145965   -0.664181
  C      1.031274    1.659312   -0.123359
  C     -0.050824    0.784297    0.020351
  C      0.026041   -0.582050   -0.355686
  C      1.222874   -1.070347   -0.908626
  C     -1.258470   -1.175009   -0.068932
  C     -2.035080   -0.160486    0.449926
  N     -1.316272    1.005092    0.502694
  C     -1.664355   -2.593905   -0.318077
  C     -0.971187   -3.655486    0.562500
  C     -1.438955   -3.604406    2.023589
  O     -1.821251   -4.576542    2.614791
  O     -1.371897   -2.411894    2.623821
  N     -1.129125   -4.961258   -0.027728
  H      3.230842   -0.570237   -1.485840
  H      3.065401    1.802295   -0.792068
  H      0.959389    2.707390    0.176444
  H      1.305728   -2.113086   -1.224918
  H     -3.071371   -0.192810    0.783253
  H     -1.660578    1.884263    0.860180
  H     -1.424746   -2.872441   -1.356985
  H     -2.758066   -2.694677   -0.213826
  H      0.108198   -3.413227    0.582827
  H     -1.126781   -1.727403    1.975633
  H     -2.117590   -5.213923   -0.001874
  H     -0.683837   -5.650405    0.576326

----------------------------
CARTESIAN COORDINATES (A.U.)
----------------------------
  NO LB      ZA    FRAG     MASS         X           Y           Z
   0 C     6.0000    0    12.011    4.338134   -0.385448   -1.996183
   1 C     6.0000    0    12.011    4.159831    2.165560   -1.255121
   2 C     6.0000    0    12.011    1.948826    3.135646   -0.233114
   3 C     6.0000    0    12.011   -0.096044    1.482107    0.038458
   4 C     6.0000    0    12.011    0.049211   -1.099916   -0.672150
   5 C     6.0000    0    12.011    2.310896   -2.022663   -1.717054
   6 C     6.0000    0    12.011   -2.378165   -2.220446   -0.130263
   7 C     6.0000    0    12.011   -3.845745   -0.303275    0.850237
   8 N     7.0000    0    14.007   -2.487394    1.899349    0.949953
   9 C     6.0000    0    12.011   -3.145176   -4.901770   -0.601079
  10 C     6.0000    0    12.011   -1.835278   -6.907868    1.062972
  11 C     6.0000    0    12.011   -2.719230   -6.811340    3.824029
  12 O     8.0000    0    15.999   -3.441665   -8.648411    4.941240
  13 O     8.0000    0    15.999   -2.592509   -4.557820    4.958303
  14 N     7.0000    0    14.007   -2.133737   -9.375419   -0.052398
  15 H     1.0000    0     1.008    6.105407   -1.077591   -2.807831
  16 H     1.0000    0     1.008    5.792768    3.405844   -1.496792
  17 H     1.0000    0     1.008    1.812983    5.116227    0.333431
  18 H     1.0000    0     1.008    2.467468   -3.993154   -2.314759
  19 H     1.0000    0     1.008   -5.804051   -0.364359    1.480133
  20 H     1.0000    0     1.008   -3.138037    3.560740    1.625505
  21 H     1.0000    0     1.008   -2.692379   -5.428128   -2.564330
  22 H     1.0000    0     1.008   -5.211989   -5.092201   -0.404072
  23 H     1.0000    0     1.008    0.204464   -6.450064    1.101383
  24 H     1.0000    0     1.008   -2.129307   -3.264318    3.733404
  25 H     1.0000    0     1.008   -4.001666   -9.852887   -0.003542
  26 H     1.0000    0     1.008   -1.292265  -10.677718    1.089099

--------------------------------
INTERNAL COORDINATES (ANGSTROEM)
--------------------------------
 C      0   0   0     0.000000000000     0.00000000     0.00000000
 C      1   0   0     1.408904738681     0.00000000     0.00000000
 C      2   1   0     1.387424314797   121.29786089     0.00000000
 C      3   2   1     1.399014663262   117.44470391     0.12909970
 C      4   3   2     1.419231310772   122.21087767     0.50020517
 C      1   2   3     1.386815620037   121.13966534   359.64724961
 C      5   4   3     1.443536991040   107.13565001   179.92303354
 C      7   5   4     1.378982756673   105.88301242     0.23899947
 N      8   7   5     1.370417040490   110.17135680   359.85891950
 C      7   5   4     1.496689935157   126.70271332   178.92509375
 C     10   7   5     1.543649582679   115.79978491    68.55650695
 C     11  10   7     1.534990629121   112.53587873    70.74990447
 O     12  11  10     1.200299847090   122.61142815   128.88209657
 O     12  11  10     1.336734160652   116.21941679   307.47741390
 N     11  10   7     1.441650005053   109.88582080   197.26464764
 H      1   2   3     1.092348797111   119.21213179   179.50663745
 H      2   1   3     1.092618683402   119.34124413   180.23527149
 H      3   2   1     1.092481886090   121.15945936   180.23530560
 H      6   1   2     1.092799459537   120.43957171   179.45121792
 H      8   7   5     1.089059442274   128.99213997   179.36069488
 H      9   8   7     1.009595767737   125.12824534   181.19614930
 H     10   7   5     1.101964092061   109.73056541   309.36962125
 H     10   7   5     1.103279397751   109.85845413   192.78238637
 H     11  10   7     1.106424196326   107.33586180   314.73450402
 H     14  12  11     0.974042471696   109.92112545     6.93290465
 H     15  11  10     1.020574037043   108.66126711   293.76591820
 H     15  11  10     1.018865099631   108.78566198   181.22375707

---------------------------
INTERNAL COORDINATES (A.U.)
---------------------------
 C      0   0   0     0.000000000000     0.00000000     0.00000000
 C      1   0   0     2.662444104891     0.00000000     0.00000000
 C      2   1   0     2.621851986509   121.29786089     0.00000000
 C      3   2   1     2.643754570905   117.44470391     0.12909970
 C      4   3   2     2.681958498045   122.21087767     0.50020517
 C      1   2   3     2.620701720115   121.13966534   359.64724961
 C      5   4   3     2.727889577251   107.13565001   179.92303354
 C      7   5   4     2.605899753511   105.88301242     0.23899947
 N      8   7   5     2.589712895786   110.17135680   359.85891950
 C      7   5   4     2.828334084844   126.70271332   178.92509375
 C     10   7   5     2.917074958005   115.79978491    68.55650695
 C     11  10   7     2.900711907173   112.53587873    70.74990447
 O     12  11  10     2.268237989588   122.61142815   128.88209657
 O     12  11  10     2.526061477490   116.21941679   307.47741390
 N     11  10   7     2.724323690516   109.88582080   197.26464764
 H      1   2   3     2.064240069258   119.21213179   179.50663745
 H      2   1   3     2.064750080435   119.34124413   180.23527149
 H      3   2   1     2.064491570980   121.15945936   180.23530560
 H      6   1   2     2.065091697822   120.43957171   179.45121792
 H      8   7   5     2.058024089459   128.99213997   179.36069488
 H      9   8   7     1.907859506988   125.12824534   181.19614930
 H     10   7   5     2.082410343411   109.73056541   309.36962125
 H     10   7   5     2.084895910948   109.85845413   192.78238637
 H     11  10   7     2.090838719000   107.33586180   314.73450402
 H     14  12  11     1.840673514312   109.92112545     6.93290465
 H     15  11  10     1.928605429401   108.66126711   293.76591820
 H     15  11  10     1.925376005714   108.78566198   181.22375707

---------------------
BASIS SET INFORMATION
---------------------
There are 4 groups of distinct atoms

 Group   1 Type C   : 7s4p1d contracted to 3s2p1d pattern {511/31/1}
 Group   2 Type N   : 7s4p1d contracted to 3s2p1d pattern {511/31/1}
 Group   3 Type O   : 7s4p1d contracted to 3s2p1d pattern {511/31/1}
 Group   4 Type H   : 4s1p contracted to 2s1p pattern {31/1}

Atom   0C    basis set group =>   1
Atom   1C    basis set group =>   1
Atom   2C    basis set group =>   1
Atom   3C    basis set group =>   1
Atom   4C    basis set group =>   1
Atom   5C    basis set group =>   1
Atom   6C    basis set group =>   1
Atom   7C    basis set group =>   1
Atom   8N    basis set group =>   2
Atom   9C    basis set group =>   1
Atom  10C    basis set group =>   1
Atom  11C    basis set group =>   1
Atom  12O    basis set group =>   3
Atom  13O    basis set group =>   3
Atom  14N    basis set group =>   2
Atom  15H    basis set group =>   4
Atom  16H    basis set group =>   4
Atom  17H    basis set group =>   4
Atom  18H    basis set group =>   4
Atom  19H    basis set group =>   4
Atom  20H    basis set group =>   4
Atom  21H    basis set group =>   4
Atom  22H    basis set group =>   4
Atom  23H    basis set group =>   4
Atom  24H    basis set group =>   4
Atom  25H    basis set group =>   4
Atom  26H    basis set group =>   4
-------------------------
ECP PARAMETER INFORMATION
-------------------------



------------------------------------------------------------------------------
                           ORCA GTO INTEGRAL CALCULATION
------------------------------------------------------------------------------

                         BASIS SET STATISTICS AND STARTUP INFO

 # of primitive gaussian shells          ...  240
 # of primitive gaussian functions       ...  444
 # of contracted shells                  ...  126
 # of contracted basis functions         ...  270
 Highest angular momentum                ...    2
 Maximum contraction depth               ...    5
 Integral package used                   ... LIBINT
 Integral threshhold            Thresh   ... 2.500e-011
 Primitive cut-off              TCut     ... 2.500e-012


------------------------------ INTEGRAL EVALUATION ----------------------------


 * One electron integrals 

   ECP integrals                          Pre-screening matrix                    ... done
 Shell pair data                         ... done (   0.002 sec)

Timings:
 Total evaluation time               ...     0.001 sec (   0.000 min)
 One electron matrix time            ...     0.036 sec (   0.001 min) =3600.0%
 Schwartz matrix evaluation time     ...     0.089 sec (   0.001 min) =8900.0%

-------------------------------------------------------------------------------
                                 ORCA SCF
-------------------------------------------------------------------------------

------------
SCF SETTINGS
------------
Hamiltonian:
 Density Functional     Method          .... DFT(GTOs)
 Exchange Functional    Exchange        .... PBE
   PBE kappa parameter   XKappa         ....  0.804000
   PBE mue parameter    XMuePBE         ....  0.219520
 Correlation Functional Correlation     .... PBE
   PBE beta parameter  CBetaPBE         ....  0.066725
 LDA part of GGA corr.  LDAOpt          .... PW91-LDA
 Gradients option       PostSCFGGA      .... off
 Hybrid DFT is turned on
   Fraction HF Exchange ScalHFX         ....  0.250000
   Scaling of DF-GGA-X  ScalDFX         ....  0.750000
   Scaling of DF-GGA-C  ScalDFC         ....  1.000000
   Scaling of DF-LDA-C  ScalLDAC        ....  1.000000
   Perturbative correction              ....  0.000000
   NL short-range parameter             ....  6.900000


General Settings:
 Integral files         IntName         .... tryptophan
 Hartree-Fock type      HFTyp           .... RHF
 Total Charge           Charge          ....    0
 Multiplicity           Mult            ....    1
 Number of Electrons    NEL             ....  108
 Basis Dimension        Dim             ....  270
 Nuclear Repulsion      ENuc            ....    966.6911382429 Eh

Convergence Acceleration:
 DIIS                   CNVDIIS         .... on
   Start iteration      DIISMaxIt       ....    12
   Startup error        DIISStart       ....  0.200000
   # of expansion vecs  DIISMaxEq       ....     5
   Bias factor          DIISBfac        ....   1.050
   Max. coefficient     DIISMaxC        ....  10.000
 Newton-Raphson         CNVNR           .... off
 SOSCF                  CNVSOSCF        .... on
   Start iteration      SOSCFMaxIt      ....   150
   Startup grad/error   SOSCFStart      ....  0.003300
 Level Shifting         CNVShift        .... on
   Level shift para.    LevelShift      ....    0.2500
   Turn off err/grad.   ShiftErr        ....    0.0010
 Zerner damping         CNVZerner       .... off
 Static damping         CNVDamp         .... on
   Fraction old density DampFac         ....    0.7000
   Max. Damping (<1)    DampMax         ....    0.9800
   Min. Damping (>=0)   DampMin         ....    0.0000
   Turn off err/grad.   DampErr         ....    0.1000
 Fernandez-Rico         CNVRico         .... off

SCF Procedure:
 Maximum # iterations   MaxIter         ....   125
 SCF integral mode      SCFMode         .... Direct
   Integral package                     .... LIBINT
 Reset frequeny         DirectResetFreq ....    20
 Integral Threshold     Thresh          .... 2.500e-011 Eh
 Primitive CutOff       TCut            .... 2.500e-012 Eh

Convergence Tolerance:
 Convergence Check Mode ConvCheckMode   .... Total+1el-Energy
 Convergence forced     ConvForced      .... 0
 Energy Change          TolE            .... 1.000e-008 Eh
 1-El. energy change                    .... 1.000e-005 Eh
 Orbital Gradient       TolG            .... 1.000e-005
 Orbital Rotation angle TolX            .... 1.000e-005
 DIIS Error             TolErr          .... 5.000e-007


Diagonalization of the overlap matrix:
Smallest eigenvalue                        ... 2.596e-004
Time for diagonalization                   ...    0.001 sec
Threshold for overlap eigenvalues          ... 1.000e-008
Number of eigenvalues below threshold      ... 0
Time for construction of square roots      ...    0.013 sec
Total time needed                          ...    0.014 sec

-------------------
DFT GRID GENERATION
-------------------

General Integration Accuracy     IntAcc      ...  4.340
Radial Grid Type                 RadialGrid  ... Gauss-Chebyshev
Angular Grid (max. acc.)         AngularGrid ... Lebedev-110
Angular grid pruning method      GridPruning ... 3 (G Style)
Weight generation scheme         WeightScheme... Becke
Basis function cutoff            BFCut       ...   1.0000e-011
Integration weight cutoff        WCut        ...   1.0000e-014
Grids for H and He will be reduced by one unit

# of grid points (after initial pruning)     ...  34580 (   0.0 sec)
# of grid points (after weights+screening)   ...  31252 (   0.1 sec)
nearest neighbour list constructed           ...    0.0 sec
Grid point re-assignment to atoms done       ...    0.0 sec
Grid point division into batches done        ...    0.0 sec
Reduced shell lists constructed in    0.2 sec

Total number of grid points                  ...    31252
Total number of batches                      ...      500
Average number of points per batch           ...       62
Average number of grid points per atom       ...     1157
Average number of shells per batch           ...    75.23 (59.70%)
Average number of basis functions per batch  ...   154.62 (57.27%)
Average number of large shells per batch     ...    53.67 (71.34%)
Average number of large basis fcns per batch ...   109.55 (70.85%)
Maximum spatial batch extension              ...  19.66, 18.23, 23.17 au
Average spatial batch extension              ...   3.37,  3.32,  3.76 au

Time for grid setup =    0.357 sec

------------------------------
INITIAL GUESS: MODEL POTENTIAL
------------------------------
Loading Hartree-Fock densities                     ... done
Calculating cut-offs                               ... done
Setting up the integral package                    ... done
Initializing the effective Hamiltonian             ... done
Starting the Coulomb interaction                   ... done (   0.2 sec)
Reading the grid                                   ... done
Mapping shells                                     ... done
Starting the XC term evaluation                    ... done (   0.3 sec)
  promolecular density results
     # of electrons  =    107.988247471
     EX              =    -89.257675923
     EC              =     -3.635834133
     EX+EC           =    -92.893510056
Transforming the Hamiltonian                       ... done (   0.0 sec)
Diagonalizing the Hamiltonian                      ... done (   0.0 sec)
Back transforming the eigenvectors                 ... done (   0.0 sec)
Now organizing SCF variables                       ... done
                      ------------------
                      INITIAL GUESS DONE (   1.0 sec)
                      ------------------
--------------
SCF ITERATIONS
--------------
ITER       Energy         Delta-E        Max-DP      RMS-DP      [F,P]     Damp
               ***  Starting incremental Fock matrix formation  ***
  0   -684.7406534209   0.000000000000 0.11042869  0.00218368  0.2533913 0.7000
  1   -684.9085831791  -0.167929758232 0.07455481  0.00147711  0.1101345 0.7000
                               ***Turning on DIIS***
  2   -684.9762321761  -0.067648997040 0.07529684  0.00246050  0.0376058 0.0000
  3   -685.0825652118  -0.106333035625 0.06166863  0.00097984  0.0589727 0.0000
  4   -685.1048460592  -0.022280847441 0.01401822  0.00027202  0.0106421 0.0000
  5   -685.1060938985  -0.001247839304 0.00505227  0.00009227  0.0069254 0.0000
                      *** Initiating the SOSCF procedure ***
                           *** Shutting down DIIS ***
                      *** Re-Reading the Fockian *** 
                      *** Removing any level shift *** 
ITER      Energy       Delta-E        Grad      Rot      Max-DP    RMS-DP
  6   -685.10619463  -0.0001007330  0.000252  0.000252  0.001139  0.000032
               *** Restarting incremental Fock matrix formation ***
  7   -685.10620315  -0.0000085192  0.000122  0.000379  0.000556  0.000020
  8   -685.10620307   0.0000000835  0.000293  0.000363  0.000424  0.000009
  9   -685.10620452  -0.0000014481  0.000058  0.000122  0.000168  0.000005
 10   -685.10620447   0.0000000471  0.000056  0.000050  0.000114  0.000003
 11   -685.10620460  -0.0000001271  0.000010  0.000024  0.000046  0.000001
 12   -685.10620460   0.0000000003  0.000009  0.000015  0.000024  0.000001
                  ***Gradient check signals convergence***
              ***Rediagonalizing the Fockian in SOSCF/NRSCF***

               *****************************************************
               *                     SUCCESS                       *
               *           SCF CONVERGED AFTER  13 CYCLES          *
               *****************************************************

Setting up the final grid:

General Integration Accuracy     IntAcc      ...  4.670
Radial Grid Type                 RadialGrid  ... Gauss-Chebyshev
Angular Grid (max. acc.)         AngularGrid ... Lebedev-302
Angular grid pruning method      GridPruning ... 3 (G Style)
Weight generation scheme         WeightScheme... Becke
Basis function cutoff            BFCut       ...   1.0000e-011
Integration weight cutoff        WCut        ...   1.0000e-014
Grids for H and He will be reduced by one unit

# of grid points (after initial pruning)     ... 133908 (   0.1 sec)
# of grid points (after weights+screening)   ... 118569 (   0.6 sec)
nearest neighbour list constructed           ...    0.0 sec
Grid point re-assignment to atoms done       ...    0.0 sec
Grid point division into batches done        ...    0.4 sec
Reduced shell lists constructed in    1.3 sec

Total number of grid points                  ...   118569
Total number of batches                      ...     1869
Average number of points per batch           ...       63
Average number of grid points per atom       ...     4391
Average number of shells per batch           ...    68.64 (54.47%)
Average number of basis functions per batch  ...   139.92 (51.82%)
Average number of large shells per batch     ...    47.99 (69.92%)
Average number of large basis fcns per batch ...    97.05 (69.36%)
Maximum spatial batch extension              ...  17.81, 17.04, 21.17 au
Average spatial batch extension              ...   2.27,  2.21,  2.40 au

Final grid set up in    1.9 sec
Final integration                            ... done (   1.9 sec)
Change in XC energy                          ...     0.000653140
Integrated number of electrons               ...   108.000249001
Previous integrated no of electrons          ...   107.994747829

----------------
TOTAL SCF ENERGY
----------------

Total Energy       :         -685.10555146 Eh          -18642.66983 eV

Components:
Nuclear Repulsion  :          966.69113824 Eh           26305.00319 eV
Electronic Energy  :        -1651.79668970 Eh          -44947.67302 eV
One Electron Energy:        -2849.22945915 Eh          -77531.47521 eV
Two Electron Energy:         1197.43276945 Eh           32583.80219 eV

Virial components:
Potential Energy   :        -1363.78711065 Eh          -37110.53394 eV
Kinetic Energy     :          678.68155919 Eh           18467.86411 eV
Virial Ratio       :            2.00946540


DFT components:
N(Alpha)           :       54.000124500284 electrons
N(Beta)            :       54.000124500284 electrons
N(Total)           :      108.000249000568 electrons
E(X)               :      -68.007551814862 Eh       
E(C)               :       -3.661313404843 Eh       
E(XC)              :      -71.668865219705 Eh       

---------------
SCF CONVERGENCE
---------------

  Last Energy change         ...  -3.0777e-009  Tolerance :  1.0000e-008
  Last MAX-Density change    ...   4.6264e-006  Tolerance :  1.0000e-007
  Last RMS-Density change    ...   1.2430e-007  Tolerance :  5.0000e-009
  Last Orbital Gradient      ...   1.3300e-006  Tolerance :  1.0000e-005
  Last Orbital Rotation      ...   4.9980e-006  Tolerance :  1.0000e-005

             **** THE GBW FILE WAS UPDATED (tryptophan.gbw) ****
             **** DENSITY FILE WAS UPDATED (tryptophan.scfp.tmp) ****
             **** ENERGY FILE WAS UPDATED (tryptophan.en.tmp) ****
----------------
ORBITAL ENERGIES
----------------

  NO   OCC          E(Eh)            E(eV) 
   0   2.0000     -19.242553      -523.6165 
   1   2.0000     -19.183991      -522.0229 
   2   2.0000     -14.459029      -393.4502 
   3   2.0000     -14.371256      -391.0618 
   4   2.0000     -10.345786      -281.5232 
   5   2.0000     -10.288357      -279.9604 
   6   2.0000     -10.282289      -279.7953 
   7   2.0000     -10.275757      -279.6176 
   8   2.0000     -10.254776      -279.0466 
   9   2.0000     -10.252078      -278.9732 
  10   2.0000     -10.251201      -278.9494 
  11   2.0000     -10.247461      -278.8476 
  12   2.0000     -10.247000      -278.8350 
  13   2.0000     -10.245751      -278.8011 
  14   2.0000     -10.240666      -278.6627 
  15   2.0000      -1.112604       -30.2755 
  16   2.0000      -1.027693       -27.9650 
  17   2.0000      -1.024172       -27.8691 
  18   2.0000      -0.913866       -24.8676 
  19   2.0000      -0.874018       -23.7832 
  20   2.0000      -0.835955       -22.7475 
  21   2.0000      -0.771573       -20.9956 
  22   2.0000      -0.766146       -20.8479 
  23   2.0000      -0.743241       -20.2246 
  24   2.0000      -0.675539       -18.3823 
  25   2.0000      -0.653985       -17.7958 
  26   2.0000      -0.622963       -16.9517 
  27   2.0000      -0.618352       -16.8262 
  28   2.0000      -0.596296       -16.2260 
  29   2.0000      -0.571682       -15.5563 
  30   2.0000      -0.544729       -14.8228 
  31   2.0000      -0.515266       -14.0211 
  32   2.0000      -0.509327       -13.8595 
  33   2.0000      -0.496226       -13.5030 
  34   2.0000      -0.480476       -13.0744 
  35   2.0000      -0.466330       -12.6895 
  36   2.0000      -0.459387       -12.5006 
  37   2.0000      -0.456549       -12.4233 
  38   2.0000      -0.451752       -12.2928 
  39   2.0000      -0.443966       -12.0809 
  40   2.0000      -0.426645       -11.6096 
  41   2.0000      -0.413190       -11.2435 
  42   2.0000      -0.405890       -11.0448 
  43   2.0000      -0.394910       -10.7460 
  44   2.0000      -0.382990       -10.4217 
  45   2.0000      -0.370412       -10.0794 
  46   2.0000      -0.366805        -9.9813 
  47   2.0000      -0.355629        -9.6771 
  48   2.0000      -0.324191        -8.8217 
  49   2.0000      -0.305304        -8.3077 
  50   2.0000      -0.282369        -7.6837 
  51   2.0000      -0.256916        -6.9910 
  52   2.0000      -0.253236        -6.8909 
  53   2.0000      -0.234591        -6.3835 
  54   0.0000      -0.028964        -0.7882 
  55   0.0000       0.009694         0.2638 
  56   0.0000       0.024681         0.6716 
  57   0.0000       0.043611         1.1867 
  58   0.0000       0.051278         1.3953 
  59   0.0000       0.072882         1.9832 
  60   0.0000       0.082987         2.2582 
  61   0.0000       0.088241         2.4012 
  62   0.0000       0.098807         2.6887 
  63   0.0000       0.105912         2.8820 
  64   0.0000       0.121219         3.2985 
  65   0.0000       0.126257         3.4356 
  66   0.0000       0.138940         3.7808 
  67   0.0000       0.149885         4.0786 
  68   0.0000       0.159623         4.3436 
  69   0.0000       0.167212         4.5501 
  70   0.0000       0.187339         5.0978 
  71   0.0000       0.200415         5.4536 
  72   0.0000       0.220465         5.9992 
  73   0.0000       0.229906         6.2561 
  74   0.0000       0.238087         6.4787 
  75   0.0000       0.261760         7.1228 
  76   0.0000       0.263643         7.1741 
  77   0.0000       0.283486         7.7141 
  78   0.0000       0.292990         7.9727 
  79   0.0000       0.300334         8.1725 
  80   0.0000       0.324848         8.8396 
  81   0.0000       0.330863         9.0032 
  82   0.0000       0.335953         9.1417 
  83   0.0000       0.354750         9.6532 
  84   0.0000       0.383567        10.4374 
  85   0.0000       0.391165        10.6442 
  86   0.0000       0.410085        11.1590 
  87   0.0000       0.424090        11.5401 
  88   0.0000       0.427562        11.6346 
  89   0.0000       0.436505        11.8779 
  90   0.0000       0.444448        12.0940 
  91   0.0000       0.461430        12.5562 
  92   0.0000       0.489139        13.3102 
  93   0.0000       0.492632        13.4052 
  94   0.0000       0.495227        13.4758 
  95   0.0000       0.505437        13.7536 
  96   0.0000       0.512179        13.9371 
  97   0.0000       0.520007        14.1501 
  98   0.0000       0.533716        14.5232 
  99   0.0000       0.538445        14.6518 
 100   0.0000       0.553028        15.0487 
 101   0.0000       0.560638        15.2557 
 102   0.0000       0.572302        15.5731 
 103   0.0000       0.579032        15.7562 
 104   0.0000       0.593909        16.1611 
 105   0.0000       0.602075        16.3833 
 106   0.0000       0.619438        16.8558 
 107   0.0000       0.626651        17.0521 
 108   0.0000       0.634047        17.2533 
 109   0.0000       0.642324        17.4785 
 110   0.0000       0.648687        17.6517 
 111   0.0000       0.662871        18.0376 
 112   0.0000       0.665157        18.0998 
 113   0.0000       0.671940        18.2844 
 114   0.0000       0.679768        18.4974 
 115   0.0000       0.693540        18.8722 
 116   0.0000       0.695062        18.9136 
 117   0.0000       0.706024        19.2119 
 118   0.0000       0.718449        19.5500 
 119   0.0000       0.724669        19.7193 
 120   0.0000       0.727671        19.8009 
 121   0.0000       0.741473        20.1765 
 122   0.0000       0.751919        20.4608 
 123   0.0000       0.758081        20.6284 
 124   0.0000       0.771260        20.9871 
 125   0.0000       0.787241        21.4219 
 126   0.0000       0.796862        21.6837 
 127   0.0000       0.800903        21.7937 
 128   0.0000       0.812654        22.1134 
 129   0.0000       0.824503        22.4359 
 130   0.0000       0.842648        22.9296 
 131   0.0000       0.856034        23.2939 
 132   0.0000       0.868349        23.6290 
 133   0.0000       0.891203        24.2509 
 134   0.0000       0.906364        24.6634 
 135   0.0000       0.931308        25.3422 
 136   0.0000       0.951381        25.8884 
 137   0.0000       0.953590        25.9485 
 138   0.0000       0.984815        26.7982 
 139   0.0000       1.002777        27.2869 
 140   0.0000       1.032512        28.0961 
 141   0.0000       1.048679        28.5360 
 142   0.0000       1.069842        29.1119 
 143   0.0000       1.097675        29.8693 
 144   0.0000       1.111259        30.2389 
 145   0.0000       1.116987        30.3948 
 146   0.0000       1.132268        30.8106 
 147   0.0000       1.156641        31.4738 
 148   0.0000       1.185920        32.2705 
 149   0.0000       1.201821        32.7032 
 150   0.0000       1.206199        32.8223 
 151   0.0000       1.227347        33.3978 
 152   0.0000       1.242209        33.8022 
 153   0.0000       1.252124        34.0720 
 154   0.0000       1.266998        34.4768 
 155   0.0000       1.276152        34.7259 
 156   0.0000       1.283701        34.9313 
 157   0.0000       1.300213        35.3806 
 158   0.0000       1.309538        35.6343 
 159   0.0000       1.323860        36.0241 
 160   0.0000       1.326491        36.0957 
 161   0.0000       1.342788        36.5391 
 162   0.0000       1.366905        37.1954 
 163   0.0000       1.386674        37.7333 
 164   0.0000       1.408849        38.3367 
 165   0.0000       1.421356        38.6771 
 166   0.0000       1.451667        39.5019 
 167   0.0000       1.505918        40.9781 
 168   0.0000       1.535806        41.7914 
 169   0.0000       1.574272        42.8381 
 170   0.0000       1.587132        43.1881 
 171   0.0000       1.634849        44.4865 
 172   0.0000       1.662309        45.2337 
 173   0.0000       1.668074        45.3906 
 174   0.0000       1.675642        45.5965 
 175   0.0000       1.679575        45.7036 
 176   0.0000       1.689677        45.9785 
 177   0.0000       1.699665        46.2502 
 178   0.0000       1.717061        46.7236 
 179   0.0000       1.735450        47.2240 
 180   0.0000       1.743362        47.4393 
 181   0.0000       1.752987        47.7012 
 182   0.0000       1.762812        47.9686 
 183   0.0000       1.769481        48.1500 
 184   0.0000       1.784251        48.5519 
 185   0.0000       1.786314        48.6081 
 186   0.0000       1.804746        49.1096 
 187   0.0000       1.808522        49.2124 
 188   0.0000       1.811890        49.3040 
 189   0.0000       1.821148        49.5559 
 190   0.0000       1.827879        49.7391 
 191   0.0000       1.857884        50.5556 
 192   0.0000       1.861650        50.6581 
 193   0.0000       1.890676        51.4479 
 194   0.0000       1.901636        51.7462 
 195   0.0000       1.910922        51.9988 
 196   0.0000       1.912398        52.0390 
 197   0.0000       1.933352        52.6092 
 198   0.0000       1.938037        52.7367 
 199   0.0000       1.956185        53.2305 
 200   0.0000       1.969716        53.5987 
 201   0.0000       1.987960        54.0951 
 202   0.0000       2.011632        54.7393 
 203   0.0000       2.017912        54.9102 
 204   0.0000       2.050043        55.7845 
 205   0.0000       2.052277        55.8453 
 206   0.0000       2.062644        56.1274 
 207   0.0000       2.093729        56.9733 
 208   0.0000       2.103370        57.2356 
 209   0.0000       2.119221        57.6669 
 210   0.0000       2.134239        58.0756 
 211   0.0000       2.137343        58.1601 
 212   0.0000       2.158136        58.7259 
 213   0.0000       2.177358        59.2489 
 214   0.0000       2.189457        59.5781 
 215   0.0000       2.191224        59.6262 
 216   0.0000       2.217498        60.3412 
 217   0.0000       2.238831        60.9217 
 218   0.0000       2.268000        61.7154 
 219   0.0000       2.299173        62.5637 
 220   0.0000       2.307897        62.8011 
 221   0.0000       2.319670        63.1214 
 222   0.0000       2.344921        63.8085 
 223   0.0000       2.370898        64.5154 
 224   0.0000       2.388034        64.9817 
 225   0.0000       2.399653        65.2979 
 226   0.0000       2.403663        65.4070 
 227   0.0000       2.436793        66.3085 
 228   0.0000       2.452481        66.7354 
 229   0.0000       2.490656        67.7742 
 230   0.0000       2.507035        68.2199 
 231   0.0000       2.549645        69.3794 
 232   0.0000       2.565795        69.8188 
 233   0.0000       2.608425        70.9788 
 234   0.0000       2.653332        72.2008 
 235   0.0000       2.659425        72.3666 
 236   0.0000       2.668172        72.6046 
 237   0.0000       2.686355        73.0994 
 238   0.0000       2.701923        73.5231 
 239   0.0000       2.732165        74.3460 
 240   0.0000       2.749944        74.8298 
 241   0.0000       2.758141        75.0528 
 242   0.0000       2.763777        75.2062 
 243   0.0000       2.786320        75.8196 
 244   0.0000       2.796365        76.0930 
 245   0.0000       2.825699        76.8912 
 246   0.0000       2.847540        77.4855 
 247   0.0000       2.873761        78.1990 
 248   0.0000       2.892306        78.7036 
 249   0.0000       2.894690        78.7685 
 250   0.0000       2.900655        78.9308 
 251   0.0000       2.945152        80.1417 
 252   0.0000       2.973305        80.9077 
 253   0.0000       2.990407        81.3731 
 254   0.0000       3.037770        82.6619 
 255   0.0000       3.053733        83.0963 
 256   0.0000       3.087282        84.0092 
 257   0.0000       3.120638        84.9169 
 258   0.0000       3.168989        86.2326 
 259   0.0000       3.220517        87.6347 
 260   0.0000       3.227960        87.8373 
 261   0.0000       3.272853        89.0588 
 262   0.0000       3.371060        91.7312 
 263   0.0000       3.402989        92.6000 
 264   0.0000       3.443489        93.7021 
 265   0.0000       3.472160        94.4823 
 266   0.0000       3.564961        97.0075 
 267   0.0000       3.653515        99.4172 
 268   0.0000       3.694271       100.5262 
 269   0.0000       3.877167       105.5031 

                    ********************************
                    * MULLIKEN POPULATION ANALYSIS *
                    ********************************

-----------------------
MULLIKEN ATOMIC CHARGES
-----------------------
   0 C :   -0.017857
   1 C :   -0.032005
   2 C :   -0.033433
   3 C :    0.080495
   4 C :    0.030780
   5 C :   -0.049218
   6 C :   -0.268230
   7 C :    0.052544
   8 N :   -0.144076
   9 C :    0.121868
  10 C :   -0.144015
  11 C :    0.190238
  12 O :   -0.232029
  13 O :   -0.192404
  14 N :   -0.205502
  15 H :    0.018794
  16 H :    0.025509
  17 H :    0.001216
  18 H :    0.018110
  19 H :    0.038987
  20 H :    0.141669
  21 H :    0.060143
  22 H :    0.032375
  23 H :    0.074415
  24 H :    0.208190
  25 H :    0.108136
  26 H :    0.115301
Sum of atomic charges:    0.0000000

--------------------------------
MULLIKEN REDUCED ORBITAL CHARGES
--------------------------------
  0 C s       :     3.148387  s :     3.148387
      pz      :     0.990304  p :     2.834733
      px      :     0.902291
      py      :     0.942138
      dz2     :     0.002889  d :     0.034737
      dxz     :     0.004427
      dyz     :     0.006480
      dx2y2   :     0.010717
      dxy     :     0.010224
  1 C s       :     3.152129  s :     3.152129
      pz      :     0.989624  p :     2.844653
      px      :     0.920735
      py      :     0.934294
      dz2     :     0.004459  d :     0.035222
      dxz     :     0.004497
      dyz     :     0.005766
      dx2y2   :     0.009071
      dxy     :     0.011430
  2 C s       :     3.230671  s :     3.230671
      pz      :     1.001865  p :     2.768352
      px      :     0.955607
      py      :     0.810881
      dz2     :     0.003820  d :     0.034410
      dxz     :     0.006493
      dyz     :     0.004090
      dx2y2   :     0.010067
      dxy     :     0.009940
  3 C s       :     2.997058  s :     2.997058
      pz      :     1.006221  p :     2.861909
      px      :     0.812262
      py      :     1.043426
      dz2     :     0.007322  d :     0.060538
      dxz     :     0.013121
      dyz     :     0.007197
      dx2y2   :     0.018694
      dxy     :     0.014204
  4 C s       :     3.048467  s :     3.048467
      pz      :     1.002562  p :     2.877628
      px      :     0.910893
      py      :     0.964172
      dz2     :     0.004970  d :     0.043124
      dxz     :     0.008073
      dyz     :     0.006396
      dx2y2   :     0.014204
      dxy     :     0.009481
  5 C s       :     3.225704  s :     3.225704
      pz      :     0.976263  p :     2.788336
      px      :     0.969922
      py      :     0.842151
      dz2     :     0.003641  d :     0.035178
      dxz     :     0.007034
      dyz     :     0.003995
      dx2y2   :     0.011473
      dxy     :     0.009035
  6 C s       :     3.134770  s :     3.134770
      pz      :     1.090640  p :     3.090096
      px      :     1.034743
      py      :     0.964713
      dz2     :     0.005833  d :     0.043364
      dxz     :     0.005591
      dyz     :     0.008082
      dx2y2   :     0.010265
      dxy     :     0.013593
  7 C s       :     3.165482  s :     3.165482
      pz      :     1.028572  p :     2.730504
      px      :     0.859893
      py      :     0.842039
      dz2     :     0.005470  d :     0.051470
      dxz     :     0.005507
      dyz     :     0.011414
      dx2y2   :     0.013956
      dxy     :     0.015123
  8 N s       :     3.374936  s :     3.374936
      pz      :     1.506591  p :     3.743918
      px      :     1.161022
      py      :     1.076304
      dz2     :     0.002437  d :     0.025222
      dxz     :     0.004983
      dyz     :     0.003908
      dx2y2   :     0.007228
      dxy     :     0.006667
  9 C s       :     2.952231  s :     2.952231
      pz      :     1.016417  p :     2.891402
      px      :     0.980292
      py      :     0.894693
      dz2     :     0.008088  d :     0.034499
      dxz     :     0.002883
      dyz     :     0.007822
      dx2y2   :     0.010185
      dxy     :     0.005523
 10 C s       :     3.107209  s :     3.107209
      pz      :     0.976735  p :     2.978055
      px      :     1.088495
      py      :     0.912825
      dz2     :     0.015905  d :     0.058751
      dxz     :     0.005669
      dyz     :     0.014406
      dx2y2   :     0.013131
      dxy     :     0.009640
 11 C s       :     3.061939  s :     3.061939
      pz      :     0.942967  p :     2.609452
      px      :     0.817556
      py      :     0.848929
      dz2     :     0.030707  d :     0.138371
      dxz     :     0.012397
      dyz     :     0.037211
      dx2y2   :     0.029747
      dxy     :     0.028308
 12 O s       :     3.740605  s :     3.740605
      pz      :     1.623413  p :     4.472369
      px      :     1.390984
      py      :     1.457972
      dz2     :     0.002699  d :     0.019054
      dxz     :     0.002010
      dyz     :     0.005526
      dx2y2   :     0.004165
      dxy     :     0.004655
 13 O s       :     3.681833  s :     3.681833
      pz      :     1.553761  p :     4.496578
      px      :     1.732753
      py      :     1.210063
      dz2     :     0.002244  d :     0.013993
      dxz     :     0.002115
      dyz     :     0.006476
      dx2y2   :     0.001661
      dxy     :     0.001497
 14 N s       :     3.423429  s :     3.423429
      pz      :     1.581429  p :     3.761956
      px      :     1.147576
      py      :     1.032950
      dz2     :     0.002816  d :     0.020118
      dxz     :     0.002087
      dyz     :     0.007087
      dx2y2   :     0.005357
      dxy     :     0.002771
 15 H s       :     0.957687  s :     0.957687
      pz      :     0.006563  p :     0.023519
      px      :     0.012268
      py      :     0.004688
 16 H s       :     0.951000  s :     0.951000
      pz      :     0.004821  p :     0.023492
      px      :     0.011003
      py      :     0.007667
 17 H s       :     0.975070  s :     0.975070
      pz      :     0.005788  p :     0.023714
      px      :     0.003464
      py      :     0.014461
 18 H s       :     0.958231  s :     0.958231
      pz      :     0.005769  p :     0.023660
      px      :     0.003553
      py      :     0.014337
 19 H s       :     0.937310  s :     0.937310
      pz      :     0.006222  p :     0.023703
      px      :     0.015014
      py      :     0.002466
 20 H s       :     0.813264  s :     0.813264
      pz      :     0.013814  p :     0.045067
      px      :     0.008952
      py      :     0.022302
 21 H s       :     0.916483  s :     0.916483
      pz      :     0.013585  p :     0.023374
      px      :     0.005086
      py      :     0.004703
 22 H s       :     0.944903  s :     0.944903
      pz      :     0.004504  p :     0.022722
      px      :     0.014193
      py      :     0.004025
 23 H s       :     0.904826  s :     0.904826
      pz      :     0.003957  p :     0.020759
      px      :     0.014030
      py      :     0.002773
 24 H s       :     0.718231  s :     0.718231
      pz      :     0.026870  p :     0.073579
      px      :     0.017891
      py      :     0.028818
 25 H s       :     0.844918  s :     0.844918
      pz      :     0.013896  p :     0.046945
      px      :     0.023671
      py      :     0.009379
 26 H s       :     0.837829  s :     0.837829
      pz      :     0.016961  p :     0.046870
      px      :     0.014208
      py      :     0.015701


                     *******************************
                     * LOEWDIN POPULATION ANALYSIS *
                     *******************************

----------------------
LOEWDIN ATOMIC CHARGES
----------------------
   0 C :   -0.046517
   1 C :   -0.035028
   2 C :   -0.055844
   3 C :    0.006873
   4 C :   -0.055010
   5 C :   -0.028936
   6 C :   -0.112455
   7 C :    0.002714
   8 N :    0.062446
   9 C :   -0.033323
  10 C :   -0.045050
  11 C :    0.057690
  12 O :   -0.177668
  13 O :   -0.032399
  14 N :   -0.098135
  15 H :    0.034339
  16 H :    0.035455
  17 H :    0.033808
  18 H :    0.035831
  19 H :    0.033284
  20 H :    0.094311
  21 H :    0.047285
  22 H :    0.036546
  23 H :    0.040101
  24 H :    0.076381
  25 H :    0.059721
  26 H :    0.063580

-------------------------------
LOEWDIN REDUCED ORBITAL CHARGES
-------------------------------
  0 C s       :     2.860048  s :     2.860048
      pz      :     1.001539  p :     3.096516
      px      :     1.041195
      py      :     1.053781
      dz2     :     0.006517  d :     0.089953
      dxz     :     0.009825
      dyz     :     0.014839
      dx2y2   :     0.029958
      dxy     :     0.028814
  1 C s       :     2.860709  s :     2.860709
      pz      :     0.992627  p :     3.083839
      px      :     1.039950
      py      :     1.051263
      dz2     :     0.009596  d :     0.090479
      dxz     :     0.010467
      dyz     :     0.013568
      dx2y2   :     0.025755
      dxy     :     0.031094
  2 C s       :     2.857587  s :     2.857587
      pz      :     1.021149  p :     3.107873
      px      :     1.053185
      py      :     1.033538
      dz2     :     0.008377  d :     0.090384
      dxz     :     0.015464
      dyz     :     0.009016
      dx2y2   :     0.028954
      dxy     :     0.028574
  3 C s       :     2.824005  s :     2.824005
      pz      :     1.000109  p :     3.023437
      px      :     0.958324
      py      :     1.065005
      dz2     :     0.015663  d :     0.145685
      dxz     :     0.028905
      dyz     :     0.015580
      dx2y2   :     0.050636
      dxy     :     0.034900
  4 C s       :     2.838671  s :     2.838671
      pz      :     1.026339  p :     3.103857
      px      :     1.043579
      py      :     1.033939
      dz2     :     0.010577  d :     0.112483
      dxz     :     0.018539
      dyz     :     0.015443
      dx2y2   :     0.040530
      dxy     :     0.027393
  5 C s       :     2.858617  s :     2.858617
      pz      :     0.988209  p :     3.079409
      px      :     1.048811
      py      :     1.042389
      dz2     :     0.008030  d :     0.090911
      dxz     :     0.016354
      dyz     :     0.008829
      dx2y2   :     0.031408
      dxy     :     0.026288
  6 C s       :     2.853205  s :     2.853205
      pz      :     1.059086  p :     3.150283
      px      :     1.051658
      py      :     1.039540
      dz2     :     0.012211  d :     0.108966
      dxz     :     0.013155
      dyz     :     0.017140
      dx2y2   :     0.028725
      dxy     :     0.037735
  7 C s       :     2.859319  s :     2.859319
      pz      :     1.036922  p :     3.014771
      px      :     1.022507
      py      :     0.955341
      dz2     :     0.011656  d :     0.123196
      dxz     :     0.011044
      dyz     :     0.025750
      dx2y2   :     0.034537
      dxy     :     0.040209
  8 N s       :     3.026189  s :     3.026189
      pz      :     1.464882  p :     3.849185
      px      :     1.208946
      py      :     1.175358
      dz2     :     0.004443  d :     0.062180
      dxz     :     0.010736
      dyz     :     0.008221
      dx2y2   :     0.019711
      dxy     :     0.019070
  9 C s       :     2.834012  s :     2.834012
      pz      :     1.053900  p :     3.109644
      px      :     1.052687
      py      :     1.003057
      dz2     :     0.021443  d :     0.089667
      dxz     :     0.006885
      dyz     :     0.020495
      dx2y2   :     0.026650
      dxy     :     0.014193
 10 C s       :     2.852498  s :     2.852498
      pz      :     1.024588  p :     3.057878
      px      :     1.068681
      py      :     0.964608
      dz2     :     0.037728  d :     0.134674
      dxz     :     0.013499
      dyz     :     0.034165
      dx2y2   :     0.030085
      dxy     :     0.019196
 11 C s       :     2.862899  s :     2.862899
      pz      :     1.012613  p :     2.775964
      px      :     0.825545
      py      :     0.937806
      dz2     :     0.069686  d :     0.303447
      dxz     :     0.025048
      dyz     :     0.085520
      dx2y2   :     0.065875
      dxy     :     0.057318
 12 O s       :     3.542601  s :     3.542601
      pz      :     1.654932  p :     4.603067
      px      :     1.399953
      py      :     1.548183
      dz2     :     0.003888  d :     0.032000
      dxz     :     0.003121
      dyz     :     0.010751
      dx2y2   :     0.007053
      dxy     :     0.007187
 13 O s       :     3.420070  s :     3.420070
      pz      :     1.603879  p :     4.585023
      px      :     1.700589
      py      :     1.280555
      dz2     :     0.002920  d :     0.027306
      dxz     :     0.002176
      dyz     :     0.014257
      dx2y2   :     0.004918
      dxy     :     0.003035
 14 N s       :     3.133966  s :     3.133966
      pz      :     1.583878  p :     3.919129
      px      :     1.220196
      py      :     1.115055
      dz2     :     0.004577  d :     0.045039
      dxz     :     0.003128
      dyz     :     0.014846
      dx2y2   :     0.014500
      dxy     :     0.007989
 15 H s       :     0.897369  s :     0.897369
      pz      :     0.019173  p :     0.068292
      px      :     0.034338
      py      :     0.014781
 16 H s       :     0.896422  s :     0.896422
      pz      :     0.014496  p :     0.068123
      px      :     0.030956
      py      :     0.022671
 17 H s       :     0.896977  s :     0.896977
      pz      :     0.017023  p :     0.069216
      px      :     0.011705
      py      :     0.040488
 18 H s       :     0.895190  s :     0.895190
      pz      :     0.016857  p :     0.068980
      px      :     0.011721
      py      :     0.040402
 19 H s       :     0.895075  s :     0.895075
      pz      :     0.019094  p :     0.071641
      px      :     0.042945
      py      :     0.009601
 20 H s       :     0.780940  s :     0.780940
      pz      :     0.040854  p :     0.124749
      px      :     0.025592
      py      :     0.058303
 21 H s       :     0.884137  s :     0.884137
      pz      :     0.040358  p :     0.068578
      px      :     0.013945
      py      :     0.014276
 22 H s       :     0.896676  s :     0.896676
      pz      :     0.013401  p :     0.066778
      px      :     0.040858
      py      :     0.012520
 23 H s       :     0.891779  s :     0.891779
      pz      :     0.013884  p :     0.068120
      px      :     0.041647
      py      :     0.012589
 24 H s       :     0.728744  s :     0.728744
      pz      :     0.076951  p :     0.194876
      px      :     0.050321
      py      :     0.067604
 25 H s       :     0.817996  s :     0.817996
      pz      :     0.037574  p :     0.122283
      px      :     0.062393
      py      :     0.022316
 26 H s       :     0.813061  s :     0.813061
      pz      :     0.051452  p :     0.123359
      px      :     0.030768
      py      :     0.041138


                      *****************************
                      * MAYER POPULATION ANALYSIS *
                      *****************************

  NA   - Mulliken gross atomic population
  ZA   - Total nuclear charge
  QA   - Mulliken gross atomic charge
  VA   - Mayer's total valence
  BVA  - Mayer's bonded valence
  FA   - Mayer's free valence

  ATOM       NA         ZA         QA         VA         BVA        FA
  0 C      6.0179     6.0000    -0.0179     3.8469     3.8469     0.0000
  1 C      6.0320     6.0000    -0.0320     3.8622     3.8622     0.0000
  2 C      6.0334     6.0000    -0.0334     3.8201     3.8201     0.0000
  3 C      5.9195     6.0000     0.0805     3.8845     3.8845     0.0000
  4 C      5.9692     6.0000     0.0308     3.9163     3.9163     0.0000
  5 C      6.0492     6.0000    -0.0492     3.8773     3.8773     0.0000
  6 C      6.2682     6.0000    -0.2682     3.9406     3.9406     0.0000
  7 C      5.9475     6.0000     0.0525     3.8258     3.8258    -0.0000
  8 N      7.1441     7.0000    -0.1441     3.3948     3.3948    -0.0000
  9 C      5.8781     6.0000     0.1219     3.8843     3.8843    -0.0000
 10 C      6.1440     6.0000    -0.1440     3.9437     3.9437     0.0000
 11 C      5.8098     6.0000     0.1902     4.2886     4.2886    -0.0000
 12 O      8.2320     8.0000    -0.2320     2.2691     2.2691    -0.0000
 13 O      8.1924     8.0000    -0.1924     2.2372     2.2372    -0.0000
 14 N      7.2055     7.0000    -0.2055     3.1006     3.1006     0.0000
 15 H      0.9812     1.0000     0.0188     0.9824     0.9824    -0.0000
 16 H      0.9745     1.0000     0.0255     0.9819     0.9819     0.0000
 17 H      0.9988     1.0000     0.0012     0.9892     0.9892    -0.0000
 18 H      0.9819     1.0000     0.0181     0.9891     0.9891     0.0000
 19 H      0.9610     1.0000     0.0390     1.0000     1.0000     0.0000
 20 H      0.8583     1.0000     0.1417     0.9893     0.9893    -0.0000
 21 H      0.9399     1.0000     0.0601     0.9986     0.9986    -0.0000
 22 H      0.9676     1.0000     0.0324     0.9873     0.9873     0.0000
 23 H      0.9256     1.0000     0.0744     0.9777     0.9777     0.0000
 24 H      0.7918     1.0000     0.2082     1.0270     1.0270     0.0000
 25 H      0.8919     1.0000     0.1081     1.0056     1.0056     0.0000
 26 H      0.8847     1.0000     0.1153     1.0079     1.0079     0.0000

  Mayer bond orders larger than 0.1
B(  0-C ,  1-C ) :   1.3288 B(  0-C ,  5-C ) :   1.4514 B(  0-C , 15-H ) :   0.9799 
B(  1-C ,  2-C ) :   1.4357 B(  1-C , 16-H ) :   0.9781 B(  2-C ,  3-C ) :   1.3059 
B(  2-C , 17-H ) :   0.9948 B(  3-C ,  4-C ) :   1.2749 B(  3-C ,  8-N ) :   1.1558 
B(  4-C ,  5-C ) :   1.3198 B(  4-C ,  6-C ) :   1.2248 B(  5-C , 18-H ) :   0.9854 
B(  6-C ,  7-C ) :   1.5151 B(  6-C ,  9-C ) :   1.0602 B(  7-C ,  8-N ) :   1.1764 
B(  7-C , 19-H ) :   0.9838 B(  8-N , 20-H ) :   0.9343 B(  9-C , 10-C ) :   1.0225 
B(  9-C , 21-H ) :   0.9091 B(  9-C , 22-H ) :   0.9188 B( 10-C , 11-C ) :   0.8765 
B( 10-C , 14-N ) :   1.1235 B( 10-C , 23-H ) :   0.9124 B( 11-C , 12-O ) :   2.1382 
B( 11-C , 13-O ) :   1.2050 B( 13-O , 24-H ) :   0.9325 B( 14-N , 25-H ) :   0.9668 
B( 14-N , 26-H ) :   0.9596 

-------
TIMINGS
-------

Total SCF time: 0 days 0 hours 3 min 43 sec 

Total time                  ....     223.708 sec
Sum of individual times     ....     223.528 sec  ( 99.9%)

Fock matrix formation       ....     220.404 sec  ( 98.5%)
  XC integration            ....       9.655 sec  (  4.4% of F)
    Basis function eval.    ....       2.697 sec  ( 27.9% of XC)
    Density eval.           ....       2.734 sec  ( 28.3% of XC)
    XC-Functional eval.     ....       0.306 sec  (  3.2% of XC)
    XC-Potential eval.      ....       3.507 sec  ( 36.3% of XC)
Diagonalization             ....       0.108 sec  (  0.0%)
Density matrix formation    ....       0.007 sec  (  0.0%)
Population analysis         ....       0.065 sec  (  0.0%)
Initial guess               ....       0.631 sec  (  0.3%)
Orbital Transformation      ....       0.000 sec  (  0.0%)
Orbital Orthonormalization  ....       0.000 sec  (  0.0%)
DIIS solution               ....       0.000 sec  (  0.0%)
SOSCF solution              ....       0.006 sec  (  0.0%)
Grid generation             ....       2.307 sec  (  1.0%)

-------------------------   --------------------
FINAL SINGLE POINT ENERGY      -685.105551457919
-------------------------   --------------------

------------------------------------------------------------------------------
                         ORCA SCF GRADIENT CALCULATION
------------------------------------------------------------------------------

Gradient of the Kohn-Sham DFT energy:
Kohn-Sham wavefunction type      ... RKS
Hartree-Fock exchange scaling    ...    0.250
Number of operators              ...    1
Number of atoms                  ...   27
Basis set dimensions             ...  270
Integral neglect threshold       ... 2.5e-011
Integral primitive cutoff        ... 2.5e-012

Nuclear repulsion gradient       ... done
One Electron Gradient            
  ECP gradient                   ... done
Pre-screening matrix             ... done
Starting the two electron gradient:
Two electron gradient done
Exchange-correlation gradient    ... done

------------------
CARTESIAN GRADIENT
------------------

   1   C   :   -0.000033978   -0.000043617    0.000007400
   2   C   :   -0.000001500    0.000033147    0.000015500
   3   C   :    0.000004222   -0.000013046    0.000003186
   4   C   :    0.000047390    0.000025436   -0.000039138
   5   C   :   -0.000005980   -0.000065990   -0.000036110
   6   C   :    0.000024629    0.000083342    0.000042642
   7   C   :   -0.000011798    0.000019317   -0.000015777
   8   C   :   -0.000050965   -0.000105591    0.000026937
   9   N   :   -0.000006452    0.000062621   -0.000044006
  10   C   :   -0.000006691    0.000041681   -0.000007457
  11   C   :    0.000016113   -0.000012952    0.000136553
  12   C   :   -0.000030920   -0.000038982   -0.000059247
  13   O   :   -0.000003899    0.000056558    0.000020658
  14   O   :   -0.000009524   -0.000060926   -0.000018983
  15   N   :   -0.000013204    0.000000663    0.000017891
  16   H   :    0.000011422   -0.000001417    0.000013213
  17   H   :   -0.000000853    0.000013630    0.000009939
  18   H   :    0.000001100    0.000012991   -0.000008339
  19   H   :    0.000034737   -0.000000864   -0.000012527
  20   H   :   -0.000008712    0.000007374   -0.000022926
  21   H   :   -0.000006251   -0.000013188    0.000008009
  22   H   :    0.000022097   -0.000011155    0.000014771
  23   H   :    0.000006107   -0.000007723   -0.000018065
  24   H   :    0.000006654   -0.000009181   -0.000063578
  25   H   :   -0.000013699    0.000022835    0.000020354
  26   H   :    0.000018587   -0.000000039    0.000012260
  27   H   :    0.000011370    0.000005077   -0.000003160

Difference to translation invariance:
           :   -0.0000000000   -0.0000000000   -0.0000000000

Norm of the cartesian gradient     ...    0.0003013454
RMS gradient                       ...    0.0000334828
MAX gradient                       ...    0.0001365535

-------
TIMINGS
-------

Total SCF gradient time            ...       64.774 sec

One electron gradient       ....       0.323 sec  (  0.5%)
Prescreening matrices       ....       0.129 sec  (  0.2%)
Two electron gradient       ....      53.847 sec  ( 83.1%)
XC gradient                 ....      10.389 sec  ( 16.0%)
------------------------------------------------------------------------------
                         ORCA GEOMETRY RELAXATION STEP
------------------------------------------------------------------------------

Reading the OPT-File                    .... done
Getting information on internals        .... done
Copying old internal coords+grads       .... done
Making the new internal coordinates     .... (new redundants).... done
Validating the new internal coordinates .... (new redundants).... done
Calculating the B-matrix                .... done
Calculating the G,G- and P matrices     .... done
Transforming gradient to internals      .... done
Projecting the internal gradient        .... done
Number of atoms                         ....  27
Number of internal coordinates          .... 143
Current Energy                          ....  -685.105551458 Eh
Current gradient norm                   ....     0.000301345 Eh/bohr
Maximum allowed component of the step   ....  0.300
Current trust radius                    ....  0.300
Evaluating the initial hessian          ....  (Almloef) done
Projecting the Hessian                  .... done
Forming the augmented Hessian           .... done
Diagonalizing the augmented Hessian     .... done
Last element of RFO vector              ....  0.999995918
Lowest eigenvalues of augmented Hessian:
 -0.000000359  0.010087254  0.010147384  0.013177132  0.016080218
Length of the computed step             ....  0.002857422
The final length of the internal step   ....  0.002857422
Converting the step to cartesian space:
 Initial RMS(Int)=    0.0002389497
Transforming coordinates:
 Iter   0:  RMS(Cart)=    0.0010227937 RMS(Int)=    0.0002389339
 Iter   1:  RMS(Cart)=    0.0000003203 RMS(Int)=    0.0000001483
 Iter   2:  RMS(Cart)=    0.0000000003 RMS(Int)=    0.0000000001
done
Storing new coordinates                 .... done

                                .--------------------.
          ----------------------|Geometry convergence|-------------------------
          Item                value                   Tolerance       Converged
          ---------------------------------------------------------------------
          RMS gradient        0.0000242230            0.0001000000      YES
          MAX gradient        0.0000956131            0.0003000000      YES
          RMS step            0.0002389497            0.0020000000      YES
          MAX step            0.0008848256            0.0040000000      YES
          ........................................................
          Max(Bonds)      0.0001      Max(Angles)    0.02
          Max(Dihed)        0.05      Max(Improp)    0.00
          ---------------------------------------------------------------------

                    ***********************HURRAY********************
                    ***        THE OPTIMIZATION HAS CONVERGED     ***
                    *************************************************


    ---------------------------------------------------------------------------
                         Redundant Internal Coordinates

                          --- Optimized Parameters ---  
                            (Angstroem and degrees)

        Definition                    OldVal   dE/dq     Step     FinalVal
    ----------------------------------------------------------------------------
     1. B(C   1,C   0)                1.4089  0.000012 -0.0000    1.4089   
     2. B(C   2,C   1)                1.3874 -0.000030  0.0000    1.3874   
     3. B(C   3,C   2)                1.3990  0.000011 -0.0000    1.3990   
     4. B(C   4,C   3)                1.4192  0.000042 -0.0000    1.4192   
     5. B(C   5,C   4)                1.4059  0.000010 -0.0000    1.4059   
     6. B(C   5,C   0)                1.3868 -0.000032  0.0000    1.3868   
     7. B(C   6,C   4)                1.4435  0.000067 -0.0001    1.4435   
     8. B(C   7,C   6)                1.3790 -0.000016  0.0000    1.3790   
     9. B(N   8,C   7)                1.3704  0.000056 -0.0000    1.3704   
    10. B(N   8,C   3)                1.3721  0.000027 -0.0000    1.3721   
    11. B(C   9,C   6)                1.4967  0.000006 -0.0000    1.4967   
    12. B(C  10,C   9)                1.5436  0.000043 -0.0001    1.5436   
    13. B(C  11,C  10)                1.5350 -0.000024  0.0000    1.5350   
    14. B(O  12,C  11)                1.2003 -0.000034  0.0000    1.2003   
    15. B(O  13,C  11)                1.3367 -0.000038  0.0000    1.3368   
    16. B(N  14,C  10)                1.4417 -0.000014  0.0000    1.4417   
    17. B(H  15,C   0)                1.0923  0.000007 -0.0000    1.0923   
    18. B(H  16,C   1)                1.0926  0.000006 -0.0000    1.0926   
[...]
     66       0.001024   0.001802   0.001125  -0.000107  -0.001395  -0.000249
     67      -0.000076  -0.000221  -0.000027  -0.000278  -0.001501  -0.001094
     68      -0.000133  -0.000192  -0.000085   0.000056  -0.000156   0.001040
     69       0.003401   0.004320   0.003073   0.001522  -0.000342   0.012342
     70       0.000402   0.000492   0.000368   0.000232   0.000149   0.001535
     71       0.000180   0.000249   0.000135  -0.000013  -0.000098  -0.000716
     72       0.000028  -0.000678  -0.000252  -0.000588  -0.000114   0.001116
     73      -0.000085  -0.001036  -0.000301  -0.001154  -0.003407   0.002904
     74       0.000187   0.001007   0.000461   0.000971   0.002747  -0.002797
     75      -0.000165  -0.000256  -0.000157  -0.000144   0.000031   0.796607
     76       0.000049   0.000082   0.000049   0.000038  -0.000003   0.189836
     77       0.000051   0.000079   0.000058   0.000058  -0.000016   0.011527
     78       0.000028   0.000006  -0.000012  -0.000008  -0.000115  -0.280440
     79      -0.000018  -0.000041  -0.000016  -0.000056   0.000074   0.380800
     80      -0.000074  -0.000058  -0.000048   0.000034  -0.000138  -0.319234
                  78         79         80    
      0       0.000005   0.000019   0.000049
      1      -0.000003  -0.000002   0.000336
      2      -0.000004  -0.000005   0.000070
      3       0.000002   0.000085   0.000262
      4      -0.000004   0.000008  -0.000267
      5      -0.000003  -0.000026  -0.000158
      6      -0.000002  -0.000056  -0.000333
      7      -0.000001  -0.000138   0.000114
      8       0.000003  -0.000051   0.000150
      9       0.000005  -0.000364  -0.002069
     10       0.000005   0.000269   0.000068
     11      -0.000003   0.000303   0.000693
     12      -0.000004  -0.000742   0.000446
     13       0.000020  -0.000579   0.001043
     14       0.000007   0.000301   0.000077
     15      -0.000011   0.000069  -0.000294
     16       0.000011   0.000219  -0.000229
     17       0.000010   0.000038   0.000052
     18      -0.000041  -0.000769  -0.000824
     19      -0.000035   0.001507   0.000900
     20      -0.000023  -0.000513   0.000446
     21       0.000029   0.000833   0.002290
     22       0.000021  -0.001589   0.001919
     23       0.000003  -0.000801  -0.000287
     24      -0.000003   0.001652   0.025524
     25       0.000008  -0.002803  -0.065546
     26       0.000003  -0.001156  -0.026410
     27       0.000451   0.000273  -0.000084
     28      -0.000157   0.000555  -0.000057
     29       0.000065   0.000302   0.000009
     30      -0.001425   0.000036   0.000019
     31      -0.000075   0.000317  -0.000032
     32      -0.000844  -0.000367   0.000001
     33       0.000110  -0.001047  -0.000008
     34      -0.000025  -0.003766   0.000098
     35       0.000109   0.000901   0.000042
     36      -0.000034   0.000648  -0.000003
     37      -0.000035   0.002035  -0.000051
     38      -0.000133  -0.000495  -0.000021
     39       0.000126  -0.016091   0.000787
     40       0.000325  -0.044655   0.002141
     41      -0.000344   0.040670  -0.001977
     42      -0.065190  -0.000347   0.000024
     43       0.029996   0.000408   0.000023
     44      -0.032782   0.000246  -0.000019
     45      -0.000016   0.000769   0.000056
     46       0.000008  -0.000111  -0.000047
     47       0.000005  -0.000296  -0.000031
     48      -0.000011   0.000325  -0.000118
     49      -0.000022   0.000113  -0.000200
     50      -0.000003  -0.000073  -0.000017
     51       0.000014   0.000008   0.000885
     52      -0.000009   0.000888  -0.001732
     53       0.000003   0.000192  -0.000830
     54       0.000036   0.000393   0.000197
     55      -0.000126  -0.001648   0.000597
     56      -0.000114  -0.000761   0.000140
     57      -0.000101  -0.003865  -0.009152
     58       0.000011   0.000903  -0.001626
     59       0.000033   0.000974   0.002669
     60       0.000022  -0.015937  -0.340881
     61       0.000023   0.041985   0.867056
     62       0.000014   0.015990   0.352017
     63      -0.000285   0.000297   0.000211
     64      -0.000611  -0.001951   0.000479
     65       0.000868   0.000367   0.000152
     66      -0.000835  -0.001929   0.000724
     67      -0.001212  -0.000860   0.000363
     68       0.000662  -0.000131   0.000016
     69       0.008758  -0.000068   0.000267
     70       0.001698   0.000488  -0.000122
     71       0.001365  -0.000299   0.000127
     72      -0.002080   0.261811  -0.012783
     73      -0.005232   0.714392  -0.033994
     74       0.004802  -0.644023   0.031729
     75       0.545132   0.000533  -0.000268
     76       0.145209   0.000423  -0.000113
     77      -0.016688  -0.001476   0.000051
     78       0.364323   0.004469  -0.000078
     79      -0.558368  -0.006753   0.000261
     80       0.480201   0.003546  -0.000105


-----------
IR SPECTRUM
-----------

 Mode    freq (cm**-1)   T**2         TX         TY         TZ
-------------------------------------------------------------------
   6:        33.57    2.326687  (  1.249157  -0.354380   0.800443)
   7:        47.42    3.844244  ( -1.455588   1.141328  -0.650290)
   8:        76.31    3.891355  (  1.304579  -1.038157   1.054353)
   9:        80.31    1.907145  ( -1.164355   0.341513  -0.659387)
  10:       170.69    2.414567  (  0.496495   0.371790  -1.424722)
  11:       188.64   33.339719  ( -5.067226   2.041592  -1.869450)
  12:       229.46    6.122882  ( -0.917788   0.743303  -2.174407)
  13:       248.88    4.001973  (  1.824939  -0.451066   0.684184)
  14:       267.97    4.309103  (  0.015748  -0.252271  -2.060392)
  15:       314.09   16.203055  (  1.033767   2.620617   2.875195)
  16:       336.94   14.836385  (  2.148281  -3.187018  -0.253360)
  17:       383.39    5.477755  ( -1.183366   1.937100  -0.570126)
  18:       441.24   17.700288  ( -1.441839   1.458191  -3.673564)
  19:       473.21    5.208264  (  1.061257   2.006889  -0.233225)
  20:       495.92   66.300023  ( -3.003658   2.169402  -7.250638)
  21:       505.50    9.237563  (  0.947299  -2.581534   1.294553)
  22:       552.96    0.196831  (  0.207537  -0.226246  -0.320269)
  23:       595.28    4.422695  ( -0.362760   1.183383  -1.700207)
  24:       603.19   20.481279  (  3.694832  -1.293762   2.270611)
  25:       606.59    7.439896  (  1.515366   1.702076   1.498832)
  26:       645.15   52.455804  (  2.995989  -4.197590   5.085282)
  27:       665.99   13.889872  (  0.159448  -3.428959   1.451444)
  28:       736.56    1.370515  (  0.671722  -0.300611  -0.910460)
  29:       765.35   65.853660  ( -2.099426   2.633262  -7.383224)
  30:       777.21    5.862256  ( -1.838888  -0.562311  -1.471243)
  31:       782.54    2.706976  ( -1.412094  -0.698572   0.474305)
  32:       801.90    1.133931  (  0.520040  -0.169483   0.913655)
  33:       825.59    1.209894  (  1.009033  -0.436369   0.036458)
  34:       844.54    8.150227  ( -0.714450  -0.015375   2.763974)
  35:       878.81    0.454614  (  0.226555  -0.629327  -0.085050)
  36:       891.95    1.349847  ( -0.115585   0.953344   0.653928)
  37:       925.75  116.785955  ( -1.670560   6.024032   8.815113)
  38:       966.83    1.882479  ( -0.220772   0.193712  -1.340229)
  39:       994.77   23.924972  (  0.122597   3.472097   3.443035)
  40:      1008.25    0.058684  (  0.006938  -0.002662   0.242133)
  41:      1026.90   38.573831  (  0.218514   4.794585   3.941831)
  42:      1046.47    8.509747  ( -2.491020  -1.492726   0.276290)
  43:      1090.91    7.645793  ( -1.743366  -0.357231   2.116330)
  44:      1120.35   28.145051  ( -3.108939   3.990873   1.597648)
  45:      1139.92    5.708486  (  0.210106   1.982579  -1.316708)
  46:      1157.42    1.148979  ( -0.352930  -1.002036   0.142634)
  47:      1173.12    0.561212  ( -0.438489   0.588389  -0.150790)
  48:      1198.53   26.255250  ( -0.293774  -5.065087  -0.716825)
  49:      1221.16    8.047842  (  0.503419  -2.218759  -1.694556)
  50:      1234.71   10.353857  (  0.367092  -2.481968  -2.014680)
  51:      1261.80    1.289556  ( -0.143327  -0.302710  -1.085071)
  52:      1269.61    6.118622  ( -0.374993  -2.315123   0.786261)
  53:      1315.42   62.177678  (  0.145281   6.298330   4.742110)
  54:      1328.40    0.373657  (  0.117078  -0.599574   0.021464)
  55:      1369.14    3.570171  (  1.311690   0.625482   1.207648)
  56:      1383.38  116.519771  ( -1.846773  -9.241196  -5.263982)
  57:      1385.58    8.412670  ( -0.440209   0.457744   2.830081)
  58:      1417.79   53.911672  (  0.510547  -4.905328  -5.439556)
  59:      1429.79   26.437679  ( -4.822673  -1.687354   0.576493)
  60:      1458.80   10.454131  (  1.246363   1.262453   2.703132)
  61:      1475.50   22.835191  ( -2.090636  -4.226033  -0.777868)
  62:      1508.89   22.344827  ( -4.228257   1.040281   1.839696)
  63:      1549.37    6.555427  ( -2.418274  -0.516606   0.663698)
  64:      1624.49   18.221647  (  0.883363   4.121969  -0.671333)
  65:      1654.50   23.588862  (  2.419715   3.935132  -1.499526)
  66:      1658.98    2.204643  ( -0.163260  -1.281186   0.732497)
  67:      1708.26    3.512751  (  1.828300  -0.393926  -0.122033)
  68:      1909.81  417.268131  (  6.369060  16.797282  -9.723914)
  69:      3046.48    3.978467  (  1.475143   1.244998   0.502395)
  70:      3061.76   25.080972  (  3.874790   2.266153   2.220704)
  71:      3119.33    5.959165  ( -2.195851  -0.387502   0.993603)
  72:      3204.46    0.358393  (  0.193956   0.560825  -0.079055)
  73:      3210.99    1.582199  (  1.182238   0.009348  -0.429448)
  74:      3220.27   11.095370  ( -0.341641   3.199474   0.861405)
  75:      3229.81    7.112036  ( -2.444791  -0.729424   0.776514)
  76:      3274.77    1.288631  ( -0.957593   0.332261   0.511125)
  77:      3530.46    4.882078  (  0.705969   1.673015  -1.258851)
  78:      3604.38    8.140733  (  1.976012  -1.512064   1.396342)
  79:      3665.81  562.898911  (  5.487632  18.394282 -13.944002)
  80:      3705.71  107.905486  ( -4.998207   8.053390   4.250450)

The first frequency considered to be a vibration is 6
The total number of vibrations considered is 75


--------------------------
THERMOCHEMISTRY AT 298.15K
--------------------------

Temperature         ... 298.15 K
Pressure            ... 1.00 atm
Total Mass          ... 204.23 AMU

Throughout the following assumptions are being made:
  (1) The electronic state is orbitally nondegenerate
  (2) There are no thermally accessible electronically excited states
  (3) Hindered rotations indicated by low frequency modes are not
      treated as such but are treated as vibrations and this may
      cause some error
  (4) All equations used are the standard statistical mechanics
      equations for an ideal gas
  (5) All vibrations are strictly harmonic

freq.      33.57  E(vib)   ...       0.55 
freq.      47.42  E(vib)   ...       0.53 
freq.      76.31  E(vib)   ...       0.49 
freq.      80.31  E(vib)   ...       0.49 
freq.     170.69  E(vib)   ...       0.38 
freq.     188.64  E(vib)   ...       0.36 
freq.     229.46  E(vib)   ...       0.32 
freq.     248.88  E(vib)   ...       0.31 
freq.     267.97  E(vib)   ...       0.29 
freq.     314.09  E(vib)   ...       0.25 
freq.     336.94  E(vib)   ...       0.24 
freq.     383.39  E(vib)   ...       0.20 
freq.     441.24  E(vib)   ...       0.17 
freq.     473.21  E(vib)   ...       0.15 
freq.     495.92  E(vib)   ...       0.14 
freq.     505.50  E(vib)   ...       0.14 
freq.     552.96  E(vib)   ...       0.12 
freq.     595.28  E(vib)   ...       0.10 
freq.     603.19  E(vib)   ...       0.10 
freq.     606.59  E(vib)   ...       0.10 
freq.     645.15  E(vib)   ...       0.09 
freq.     665.99  E(vib)   ...       0.08 
freq.     736.56  E(vib)   ...       0.06 
freq.     765.35  E(vib)   ...       0.06 
freq.     777.21  E(vib)   ...       0.05 
freq.     782.54  E(vib)   ...       0.05 
freq.     801.90  E(vib)   ...       0.05 
freq.     825.59  E(vib)   ...       0.04 
freq.     844.54  E(vib)   ...       0.04 
freq.     878.81  E(vib)   ...       0.04 
freq.     891.95  E(vib)   ...       0.03 
freq.     925.75  E(vib)   ...       0.03 
freq.     966.83  E(vib)   ...       0.03 
freq.     994.77  E(vib)   ...       0.02 
freq.    1008.25  E(vib)   ...       0.02 
freq.    1026.90  E(vib)   ...       0.02 
freq.    1046.47  E(vib)   ...       0.02 
freq.    1090.91  E(vib)   ...       0.02 
freq.    1120.35  E(vib)   ...       0.01 
freq.    1139.92  E(vib)   ...       0.01 
freq.    1157.42  E(vib)   ...       0.01 
freq.    1173.12  E(vib)   ...       0.01 
freq.    1198.53  E(vib)   ...       0.01 
freq.    1221.16  E(vib)   ...       0.01 
freq.    1234.71  E(vib)   ...       0.01 
freq.    1261.80  E(vib)   ...       0.01 
freq.    1269.61  E(vib)   ...       0.01 
freq.    1315.42  E(vib)   ...       0.01 
freq.    1328.40  E(vib)   ...       0.01 
freq.    1369.14  E(vib)   ...       0.01 
freq.    1383.38  E(vib)   ...       0.00 
freq.    1385.58  E(vib)   ...       0.00 
freq.    1417.79  E(vib)   ...       0.00 
freq.    1429.79  E(vib)   ...       0.00 
freq.    1458.80  E(vib)   ...       0.00 
freq.    1475.50  E(vib)   ...       0.00 
freq.    1508.89  E(vib)   ...       0.00 
freq.    1549.37  E(vib)   ...       0.00 
freq.    1624.49  E(vib)   ...       0.00 
freq.    1654.50  E(vib)   ...       0.00 
freq.    1658.98  E(vib)   ...       0.00 
freq.    1708.26  E(vib)   ...       0.00 
freq.    1909.81  E(vib)   ...       0.00 
freq.    3046.48  E(vib)   ...       0.00 
freq.    3061.76  E(vib)   ...       0.00 
freq.    3119.33  E(vib)   ...       0.00 
freq.    3204.46  E(vib)   ...       0.00 
freq.    3210.99  E(vib)   ...       0.00 
freq.    3220.27  E(vib)   ...       0.00 
freq.    3229.81  E(vib)   ...       0.00 
freq.    3274.77  E(vib)   ...       0.00 
freq.    3530.46  E(vib)   ...       0.00 
freq.    3604.38  E(vib)   ...       0.00 
freq.    3665.81  E(vib)   ...       0.00 
freq.    3705.71  E(vib)   ...       0.00 

------------
INNER ENERGY
------------

The inner energy is: U= E(el) + E(ZPE) + E(vib) + E(rot) + E(trans)
    E(el)   - is the total energy from the electronic structure calculation
              = E(kin-el) + E(nuc-el) + E(el-el) + E(nuc-nuc)
    E(ZPE)  - the the zero temperature vibrational energy from the frequency calculation
    E(vib)  - the the finite temperature correction to E(ZPE) due to population
              of excited vibrational states
    E(rot)  - is the rotational thermal energy
    E(trans)- is the translational thermal energy

Summary of contributions to the inner energy U:
Electronic energy                ...   -685.10555165 Eh
Zero point energy                ...      0.22133766 Eh     138.89 kcal/mol
Thermal vibrational correction   ...      0.01009891 Eh       6.34 kcal/mol
Thermal rotational correction    ...      0.00141627 Eh       0.89 kcal/mol
Thermal translational correction ...      0.00141627 Eh       0.89 kcal/mol
-----------------------------------------------------------------------
Total thermal energy                   -684.87128253 Eh


Summary of corrections to the electronic energy:
(perhaps to be used in another calculation)
Total thermal correction                  0.01293145 Eh       8.11 kcal/mol
Non-thermal (ZPE) correction              0.22133766 Eh     138.89 kcal/mol
-----------------------------------------------------------------------
Total correction                          0.23426911 Eh     147.01 kcal/mol


--------
ENTHALPY
--------

The enthalpy is H = U + kB*T
                kB is Boltzmann's constant
Total free energy                 ...   -684.87128253 Eh 
Thermal Enthalpy correction       ...      0.00094421 Eh       0.59 kcal/mol
-----------------------------------------------------------------------
Total Enthalpy                    ...   -684.87033833 Eh


Vibrational entropy computed according to the QRRHO of S. Grimme
Chem.Eur.J. 2012 18 9955

check  

-------
ENTROPY
-------

The entropy contributions are T*S = T*(S(el)+S(vib)+S(rot)+S(trans)
     S(el)   - electronic entropy
     S(vib)  - vibrational entropy
     S(rot)  - rotational entropy
     S(trans)- translational entropy
The entropies will be listed as mutliplied by the temperature to get
units of energy

Electronic entropy                ...      0.00000000 Eh      0.00 kcal/mol
Vibrational entropy               ...      0.01725609 Eh     10.83 kcal/mol
Rotational entropy                ...      0.01419608 Eh      8.91 kcal/mol
Translational entropy             ...      0.01988256 Eh     12.48 kcal/mol
-----------------------------------------------------------------------
Final entropy term                ...      0.05133473 Eh     32.21 kcal/mol


CAUTION: The rotational entropy is not quite correctly treated here
         because it includes a symmetry number that is not yet correctly
         implemented in ORCA!
For a nonlinear molecule the correct rotational entropy is:
    S(rot) = R*(ln(qrot/sn)+1.5)
    R    = 8.31441 J/mol/K = 1.987191683e-3 kcal/mol/K
    qrot = 2266961.5966204
    sn is the rotational symmetry number. We have assumed 3 here
       if it is different for your molecule then you should correct
       the printed rotational entropy by manually evaluating the equation
       as given above

For convenience we print out the resulting values for sn=1 - 12:
 sn= 1  qrot/sn= 2266961.5966 T*S(rot)=     9.56 kcal/mol T*S(tot)=    32.86 kcal/mol
 sn= 2  qrot/sn= 1133480.7983 T*S(rot)=     9.15 kcal/mol T*S(tot)=    32.45 kcal/mol
 sn= 3  qrot/sn=  755653.8655 T*S(rot)=     8.91 kcal/mol T*S(tot)=    32.21 kcal/mol
 sn= 4  qrot/sn=  566740.3992 T*S(rot)=     8.74 kcal/mol T*S(tot)=    32.04 kcal/mol
 sn= 5  qrot/sn=  453392.3193 T*S(rot)=     8.61 kcal/mol T*S(tot)=    31.91 kcal/mol
 sn= 6  qrot/sn=  377826.9328 T*S(rot)=     8.50 kcal/mol T*S(tot)=    31.80 kcal/mol
 sn= 7  qrot/sn=  323851.6567 T*S(rot)=     8.41 kcal/mol T*S(tot)=    31.71 kcal/mol
 sn= 8  qrot/sn=  283370.1996 T*S(rot)=     8.33 kcal/mol T*S(tot)=    31.63 kcal/mol
 sn= 9  qrot/sn=  251884.6218 T*S(rot)=     8.26 kcal/mol T*S(tot)=    31.56 kcal/mol
 sn=10  qrot/sn=  226696.1597 T*S(rot)=     8.19 kcal/mol T*S(tot)=    31.50 kcal/mol
 sn=11  qrot/sn=  206087.4179 T*S(rot)=     8.14 kcal/mol T*S(tot)=    31.44 kcal/mol
 sn=12  qrot/sn=  188913.4664 T*S(rot)=     8.09 kcal/mol T*S(tot)=    31.39 kcal/mol


-------------------
GIBBS FREE ENTHALPY
-------------------

The Gibbs free enthalpy is G = H - T*S

Total enthalpy                    ...   -684.87033833 Eh 
Total entropy correction          ...     -0.05133473 Eh    -32.21 kcal/mol
-----------------------------------------------------------------------
Final Gibbs free enthalpy         ...   -684.92167306 Eh

For completeness - the Gibbs free enthalpy minus the electronic energy
G-E(el)                           ...      0.18387859 Eh    115.39 kcal/mol


Timings for individual modules:

Sum of individual times         ...    23793.635 sec (= 396.561 min)
GTO integral calculation        ...        2.381 sec (=   0.040 min)   0.0 %
SCF iterations                  ...      289.572 sec (=   4.826 min)   1.2 %
SCF Gradient evaluation         ...       66.409 sec (=   1.107 min)   0.3 %
Geometry relaxation             ...        0.986 sec (=   0.016 min)   0.0 %
Analytical frequency calculation...    23434.287 sec (= 390.571 min)  98.5 %
                             ****ORCA TERMINATED NORMALLY****
TOTAL RUN TIME: 0 days 6 hours 36 minutes 37 seconds 225 msec
