
                                 *****************
                                 * O   R   C   A *
                                 *****************

           --- An Ab Initio, DFT and Semiempirical electronic structure package ---

                  #######################################################
                  #                        -***-                        #
                  #  Department of molecular theory and spectroscopy    #
                  #              Directorship: Frank Neese              #
                  # Max Planck Institute for Chemical Energy Conversion #
                  #                  D-45470 Muelheim/Ruhr              #
                  #                       Germany                       #
                  #                                                     #
                  #                  All rights reserved                #
                  #                        -***-                        #
                  #######################################################


                         Program Version 4.0.0 -  RELEASE  -


 With contributions from (in alphabetic order):
   Daniel Aravena         : Magnetic Properties
   Michael Atanasov       : Ab Initio Ligand Field Theory
   Ute Becker             : Parallelization
   Martin Brehm           : Molecular dynamics
   Dmytro Bykov           : SCF Hessian
   Vijay G. Chilkuri      : MRCI spin determinant printing
   Dipayan Datta          : RHF DLPNO-CCSD density
   Achintya Kumar Dutta   : EOM-CC, STEOM-CC
   Dmitry Ganyushin       : Spin-Orbit,Spin-Spin,Magnetic field MRCI
   Yang Guo               : DLPNO-NEVPT2, CIM, IAO-localization
   Andreas Hansen         : Spin unrestricted coupled pair/coupled cluster methods
   Lee Huntington         : MR-EOM, pCC
   Robert Izsak           : Overlap fitted RIJCOSX, COSX-SCS-MP3, EOM
   Christian Kollmar      : KDIIS, OOCD, Brueckner-CCSD(T), CCSD density
   Simone Kossmann        : Meta GGA functionals, TD-DFT gradient, OOMP2, MP2 Hessian
   Martin Krupicka        : AUTO-CI
   Dagmar Lenk            : GEPOL surface
   Dimitrios Liakos       : Extrapolation schemes; parallel MDCI
   Dimitrios Manganas     : ROCIS; embedding schemes
   Dimitrios Pantazis     : SARC Basis sets
   Taras Petrenko         : DFT Hessian,TD-DFT gradient, ASA, ECA, R-Raman, ABS, FL, XAS/XES, NRVS
   Peter Pinski           : DLPNO-MP2
   Christoph Reimann      : Effective Core Potentials
   Marius Retegan         : Local ZFS, SOC
   Christoph Riplinger    : Optimizer, TS searches, QM/MM, DLPNO-CCSD(T), (RO)-DLPNO pert. Triples
   Tobias Risthaus        : Range-separated hybrids, TD-DFT gradient, RPA, STAB
   Michael Roemelt        : Restricted open shell CIS
   Masaaki Saitow         : Open-shell DLPNO
   Barbara Sandhoefer     : DKH picture change effects
   Kantharuban Sivalingam : CASSCF convergence, NEVPT2, FIC-MRCI
   Georgi Stoychev        : AutoAux
   Boris Wezisla          : Elementary symmetry handling
   Frank Wennmohs         : Technical directorship


 We gratefully acknowledge several colleagues who have allowed us to
 interface, adapt or use parts of their codes:
   Stefan Grimme, W. Hujo, H. Kruse,             : VdW corrections, initial TS optimization,
                  C. Bannwarth                     DFT functionals, gCP, sTDA/sTD-DF
   Ed Valeev                                     : LibInt (2-el integral package), F12 methods
   Garnet Chan, S. Sharma, J. Yang, R. Olivares  : DMRG
   Ulf Ekstrom                                   : XCFun DFT Library
   Mihaly Kallay                                 : mrcc  (arbitrary order and MRCC methods)
   Jiri Pittner, Ondrej Demel                    : Mk-CCSD
   Frank Weinhold                                : gennbo (NPA and NBO analysis)
   Christopher J. Cramer and Donald G. Truhlar   : smd solvation model


 Your calculation uses the libint2 library for the computation of 2-el integrals
 For citations please refer to: http://libint.valeyev.net

 This ORCA versions uses:
   CBLAS   interface :  Fast vector & matrix operations
   LAPACKE interface :  Fast linear algebra routines




*****************************************
The coordinations will be read from file: leucine.xyz
*****************************************


Your calculation utilizes the basis: def2-SVP
   F. Weigend and R. Ahlrichs, Phys. Chem. Chem. Phys. 7, 3297 (2005).

================================================================================
                                        WARNINGS
                       Please study these warnings very carefully!
================================================================================

Warning: TCutStore was < 0. Adjusted to Thresh (uncritical)

WARNING: Geometry Optimization
  ===> : Switching off AutoStart
         For restart on a previous wavefunction, please use MOREAD

INFO   : the flag for use of LIBINT has been found!

================================================================================
                                       INPUT FILE
================================================================================
NAME = leucine.inp
|  1> ! PBE0
|  2> ! opt anfreq
|  3> * xyzfile 0 1 leucine.xyz **                         ****END OF INPUT****
================================================================================

                       *****************************
                       * Geometry Optimization Run *
                       *****************************

Geometry optimization settings:
Update method            Update   .... BFGS
Choice of coordinates    CoordSys .... Redundant Internals
Initial Hessian          InHess   .... Almoef's Model

Convergence Tolerances:
Energy Change            TolE     .... 5.0000e-006 Eh
Max. Gradient            TolMAXG  .... 3.0000e-004 Eh/bohr
RMS Gradient             TolRMSG  .... 1.0000e-004 Eh/bohr
Max. Displacement        TolMAXD  .... 4.0000e-003 bohr
RMS Displacement         TolRMSD  .... 2.0000e-003 bohr

------------------------------------------------------------------------------
                        ORCA OPTIMIZATION COORDINATE SETUP
------------------------------------------------------------------------------

The optimization will be done in new redundant internal coordinates
Making redundant internal coordinates   ...  (new redundants) done
Evaluating the initial hessian          ...  (Almloef) done
Evaluating the coordinates              ...  done
Calculating the B-matrix                .... done
Calculating the G-matrix                .... done
Diagonalizing the G-matrix              .... done
Small eigenvalue found = 1.537e-002
The first mode is                       ....   48
The number of degrees of freedom        ....   60

    -----------------------------------------------------------------
                    Redundant Internal Coordinates


    -----------------------------------------------------------------
         Definition                    Initial Value    Approx d2E/dq
    -----------------------------------------------------------------
      1. B(C   1,H   0)                  1.1096         0.335105   
      2. B(N   2,C   1)                  1.4649         0.425037   
      3. B(H   3,N   2)                  1.0442         0.381626   
      4. B(H   4,N   2)                  1.0466         0.378269   
      5. B(C   5,C   1)                  1.5505         0.346502   
      6. B(H   6,C   5)                  1.1132         0.330647   
      7. B(H   7,C   5)                  1.1132         0.330678   
      8. B(C   8,C   5)                  1.5499         0.347217   
      9. B(H   9,C   8)                  1.1106         0.333869   
     10. B(C  10,C   8)                  1.5374         0.363603   
     11. B(H  11,C  10)                  1.1107         0.333725   
     12. B(H  12,C  10)                  1.1081         0.336926   
     13. B(H  13,C  10)                  1.1117         0.332561   
     14. B(C  14,C   8)                  1.5344         0.367527   
     15. B(H  15,C  14)                  1.1109         0.333473   
     16. B(H  16,C  14)                  1.1115         0.332727   
     17. B(H  17,C  14)                  1.1111         0.333251   
     18. B(C  18,C   1)                  1.5069         0.406592   
     19. B(O  19,C  18)                  1.2228         1.034311   
     20. B(O  20,C  18)                  1.3501         0.647827   
     21. B(H  21,O  20)                  0.9676         0.505688   
     22. A(H   0,C   1,C  18)          107.0343         0.324999   
     23. A(H   0,C   1,N   2)          108.8175         0.325419   
     24. A(N   2,C   1,C   5)          111.9648         0.364429   
     25. A(H   0,C   1,C   5)          109.7018         0.316610   
     26. A(N   2,C   1,C  18)          109.1598         0.374582   
     27. A(C   5,C   1,C  18)          110.0291         0.363940   
     28. A(C   1,N   2,H   3)          110.6310         0.329642   
     29. A(C   1,N   2,H   4)          110.5916         0.329161   
     30. A(H   3,N   2,H   4)          109.1998         0.291009   
     31. A(C   1,C   5,H   6)          108.1055         0.315921   
     32. A(H   7,C   5,C   8)          108.3648         0.316031   
     33. A(H   6,C   5,C   8)          108.5114         0.316027   
     34. A(C   1,C   5,C   8)          115.3328         0.354290   
     35. A(H   6,C   5,H   7)          107.6949         0.283196   
     36. A(C   1,C   5,H   7)          108.5887         0.315926   
     37. A(H   9,C   8,C  10)          108.8254         0.318913   
     38. A(C   5,C   8,C  10)          112.0844         0.357198   
     39. A(C   5,C   8,H   9)          109.7256         0.316525   
     40. A(C  10,C   8,C  14)          109.3725         0.360671   
     41. A(H   9,C   8,C  14)          107.1534         0.319472   
     42. A(C   5,C   8,C  14)          109.5514         0.357850   
     43. A(H  12,C  10,H  13)          109.0124         0.284275   
     44. A(H  11,C  10,H  13)          108.6211         0.283854   
     45. A(C   8,C  10,H  13)          110.6009         0.318708   
     46. A(H  11,C  10,H  12)          107.0847         0.284430   
     47. A(C   8,C  10,H  12)          111.3207         0.319387   
     48. A(C   8,C  10,H  11)          110.0974         0.318890   
     49. A(H  16,C  14,H  17)          108.7687         0.283813   
     50. A(H  15,C  14,H  17)          107.8930         0.283912   
     51. A(C   8,C  14,H  17)          110.2094         0.319375   
     52. A(H  15,C  14,H  16)          108.7446         0.283842   
     53. A(C   8,C  14,H  16)          110.8666         0.319293   
     54. A(C   8,C  14,H  15)          110.2851         0.319410   
     55. A(O  19,C  18,O  20)          119.9322         0.473899   
     56. A(C   1,C  18,O  20)          119.6427         0.403164   
     57. A(C   1,C  18,O  19)          120.4250         0.438259   
     58. A(C  18,O  20,H  21)          121.5221         0.371141   
     59. D(H   4,N   2,C   1,C  18)     68.3392         0.015403   
     60. D(H   3,N   2,C   1,H   0)    -54.0510         0.015403   
     61. D(H   3,N   2,C   1,C   5)     67.3801         0.015403   
     62. D(H   4,N   2,C   1,H   0)   -175.1711         0.015403   
     63. D(H   3,N   2,C   1,C  18)   -170.5407         0.015403   
     64. D(H   4,N   2,C   1,C   5)    -53.7400         0.015403   
     65. D(H   6,C   5,C   1,H   0)   -179.0338         0.009689   
     66. D(H   7,C   5,C   1,C  18)     55.0384         0.009689   
     67. D(C   8,C   5,C   1,C  18)    176.8403         0.009689   
     68. D(H   6,C   5,C   1,C  18)    -61.5350         0.009689   
     69. D(H   7,C   5,C   1,N   2)    176.6191         0.009689   
     70. D(C   8,C   5,C   1,H   0)     59.3415         0.009689   
     71. D(H   7,C   5,C   1,H   0)    -62.4604         0.009689   
     72. D(C   8,C   5,C   1,N   2)    -61.5790         0.009689   
     73. D(H   6,C   5,C   1,N   2)     60.0457         0.009689   
     74. D(C  14,C   8,C   5,H   7)    -61.8445         0.009726   
     75. D(C  14,C   8,C   5,C   1)    176.2332         0.009726   
     76. D(C  10,C   8,C   5,H   6)    176.4262         0.009726   
     77. D(C  10,C   8,C   5,C   1)    -62.1682         0.009726   
     78. D(H   9,C   8,C   5,H   7)   -179.2201         0.009726   
     79. D(C  10,C   8,C   5,H   7)     59.7541         0.009726   
     80. D(C  14,C   8,C   5,H   6)     54.8276         0.009726   
     81. D(H   9,C   8,C   5,H   6)    -62.5480         0.009726   
     82. D(H   9,C   8,C   5,C   1)     58.8576         0.009726   
     83. D(H  12,C  10,C   8,C  14)   -175.6646         0.010592   
     84. D(H  12,C  10,C   8,H   9)    -58.9097         0.010592   
     85. D(H  12,C  10,C   8,C   5)     62.6342         0.010592   
     86. D(H  11,C  10,C   8,C  14)    -57.0689         0.010592   
     87. D(H  11,C  10,C   8,H   9)     59.6860         0.010592   
     88. D(H  13,C  10,C   8,C   5)    -58.7187         0.010592   
     89. D(H  11,C  10,C   8,C   5)   -178.7701         0.010592   
     90. D(H  13,C  10,C   8,C  14)     62.9825         0.010592   
     91. D(H  13,C  10,C   8,H   9)    179.7374         0.010592   
     92. D(H  17,C  14,C   8,C  10)    177.4953         0.010807   
     93. D(H  17,C  14,C   8,H   9)     59.6877         0.010807   
     94. D(H  17,C  14,C   8,C   5)    -59.2891         0.010807   
     95. D(H  16,C  14,C   8,C  10)    -62.0242         0.010807   
     96. D(H  16,C  14,C   8,H   9)   -179.8318         0.010807   
     97. D(H  16,C  14,C   8,C   5)     61.1914         0.010807   
     98. D(H  15,C  14,C   8,C  10)     58.4760         0.010807   
     99. D(H  15,C  14,C   8,H   9)    -59.3316         0.010807   
    100. D(H  15,C  14,C   8,C   5)   -178.3085         0.010807   
    101. D(O  20,C  18,C   1,C   5)   -118.5606         0.012252   
    102. D(O  20,C  18,C   1,N   2)    118.2010         0.012252   
    103. D(O  20,C  18,C   1,H   0)      0.5819         0.012252   
    104. D(O  19,C  18,C   1,C   5)     61.5572         0.012252   
    105. D(O  19,C  18,C   1,N   2)    -61.6811         0.012252   
    106. D(O  19,C  18,C   1,H   0)   -179.3003         0.012252   
    107. D(H  21,O  20,C  18,O  19)     -0.0847         0.030999   
    108. D(H  21,O  20,C  18,C   1)   -179.9674         0.030999   
    -----------------------------------------------------------------

Number of atoms                         .... 22
Number of degrees of freedom            .... 108

         *************************************************************
         *                GEOMETRY OPTIMIZATION CYCLE   1            *
         *************************************************************
---------------------------------
CARTESIAN COORDINATES (ANGSTROEM)
---------------------------------
  H     -1.555270   -0.646640    0.006860
  C     -1.215620    0.350950   -0.340450
  N      0.213460    0.490840   -0.050620
  H      0.403930    0.305560    0.959200
  H      0.545620    1.453390   -0.292570
  C     -2.057500    1.457720    0.345320
  H     -1.707430    2.443910   -0.034360
  H     -3.120860    1.335490    0.039470
  C     -1.993750    1.475780    1.893820
  H     -0.942100    1.611180    2.224130
  C     -2.544310    0.179430    2.510140
  H     -2.503640    0.236550    3.618630
  H     -1.940510   -0.698900    2.207050
  H     -3.599880    0.017160    2.201560
  C     -2.793100    2.672250    2.426750
  H     -2.730290    2.714480    3.535080
  H     -3.862230    2.596930    2.132190
  H     -2.377560    3.621120    2.024880
  C     -1.424210    0.393600   -1.832280
  O     -1.115800    1.388720   -2.472460
  O     -1.953050   -0.676370   -2.463460
  H     -2.098280   -0.678620   -3.420070

----------------------------
CARTESIAN COORDINATES (A.U.)
----------------------------
  NO LB      ZA    FRAG     MASS         X           Y           Z
   0 H     1.0000    0     1.008   -2.939034   -1.221973    0.012964
   1 C     6.0000    0    12.011   -2.297189    0.663199   -0.643357
   2 N     7.0000    0    14.007    0.403381    0.927553   -0.095658
   3 H     1.0000    0     1.008    0.763317    0.577425    1.812625
   4 H     1.0000    0     1.008    1.031072    2.746509   -0.552877
   5 C     6.0000    0    12.011   -3.888112    2.754692    0.652560
   6 H     1.0000    0     1.008   -3.226575    4.618321   -0.064931
   7 H     1.0000    0     1.008   -5.897571    2.523710    0.074587
   8 C     6.0000    0    12.011   -3.767641    2.788820    3.578801
   9 H     1.0000    0     1.008   -1.780311    3.044689    4.202997
  10 C     6.0000    0    12.011   -4.808049    0.339074    4.743477
  11 H     1.0000    0     1.008   -4.731194    0.447015    6.838220
  12 H     1.0000    0     1.008   -3.667032   -1.320730    4.170720
  13 H     1.0000    0     1.008   -6.802787    0.032428    4.160345
  14 C     6.0000    0    12.011   -5.278194    5.049821    4.585893
  15 H     1.0000    0     1.008   -5.159500    5.129624    6.680333
  16 H     1.0000    0     1.008   -7.298557    4.907486    4.029255
  17 H     1.0000    0     1.008   -4.492937    6.842925    3.826469
  18 C     6.0000    0    12.011   -2.691367    0.743796   -3.462507
  19 O     8.0000    0    15.999   -2.108556    2.624300   -4.672272
  20 O     8.0000    0    15.999   -3.690730   -1.278154   -4.655265
  21 H     1.0000    0     1.008   -3.965175   -1.282406   -6.462996

--------------------------------
INTERNAL COORDINATES (ANGSTROEM)
--------------------------------
 H      0   0   0     0.000000000000     0.00000000     0.00000000
 C      1   0   0     1.109581978359     0.00000000     0.00000000
 N      2   1   0     1.464868692887   108.81753877     0.00000000
 H      3   2   1     1.044195351311   110.63097586   305.94897019
 H      3   2   1     1.046600482801   110.59162306   184.82887283
 C      2   1   3     1.550478074724   109.70178891   237.19685317
 H      6   2   1     1.113228019500   108.10547716   180.96618607
 H      6   2   1     1.113202086326   108.58865066   297.53956402
 C      6   2   1     1.549916925548   115.33282055    59.34152292
 H      9   6   2     1.110587942758   109.72561897    58.85761365
 C      9   6   2     1.537364621194   112.08439792   297.83181730
 H     11   9   6     1.110705552070   110.09737101   181.22991855
 H     11   9   6     1.108107204651   111.32066885    62.63418193
 H     11   9   6     1.111656958868   110.60086540   301.28127853
 C      9   6   2     1.534442983072   109.55144435   176.23319660
 H     15   9   6     1.110911273640   110.28513301   181.69153981
 H     15   9   6     1.111520423969   110.86660966    61.19135326
 H     15   9   6     1.111092824835   110.20938742   300.71085014
 C      2   1   3     1.506945771917   107.03433920   117.84318472
 O     19   2   1     1.222788197073   120.42503411   180.69971753
 O     19   2   1     1.350146562007   119.64265723     0.58188925
 H     21  19   2     0.967574032051   121.52208081   180.03255290

---------------------------
INTERNAL COORDINATES (A.U.)
---------------------------
 H      0   0   0     0.000000000000     0.00000000     0.00000000
 C      1   0   0     2.096806062234     0.00000000     0.00000000
 N      2   1   0     2.768200651711   108.81753877     0.00000000
 H      3   2   1     1.973243244292   110.63097586   305.94897019
 H      3   2   1     1.977788284124   110.59162306   184.82887283
 C      2   1   3     2.929978937878   109.70178891   237.19685317
 H      6   2   1     2.103696081463   108.10547716   180.96618607
 H      6   2   1     2.103647074865   108.58865066   297.53956402
 C      6   2   1     2.928918519615   115.33282055    59.34152292
 H      9   6   2     2.098707059448   109.72561897    58.85761365
 C      9   6   2     2.905198102037   112.08439792   297.83181730
 H     11   9   6     2.098929308839   110.09737101   181.22991855
 H     11   9   6     2.094019143816   111.32066885    62.63418193
 H     11   9   6     2.100727207129   110.60086540   301.28127853
 C      9   6   2     2.899677006124   109.55144435   176.23319660
 H     15   9   6     2.099318066265   110.28513301   181.69153981
 H     15   9   6     2.100469193561   110.86660966    61.19135326
 H     15   9   6     2.099661148303   110.20938742   300.71085014
 C      2   1   3     2.847714807595   107.03433920   117.84318472
 O     19   2   1     2.310734812258   120.42503411   180.69971753
 O     19   2   1     2.551407242849   119.64265723     0.58188925
 H     21  19   2     1.828449934871   121.52208081   180.03255290

---------------------
BASIS SET INFORMATION
---------------------
There are 4 groups of distinct atoms

 Group   1 Type H   : 4s1p contracted to 2s1p pattern {31/1}
 Group   2 Type C   : 7s4p1d contracted to 3s2p1d pattern {511/31/1}
 Group   3 Type N   : 7s4p1d contracted to 3s2p1d pattern {511/31/1}
 Group   4 Type O   : 7s4p1d contracted to 3s2p1d pattern {511/31/1}

Atom   0H    basis set group =>   1
Atom   1C    basis set group =>   2
Atom   2N    basis set group =>   3
Atom   3H    basis set group =>   1
Atom   4H    basis set group =>   1
Atom   5C    basis set group =>   2
Atom   6H    basis set group =>   1
Atom   7H    basis set group =>   1
Atom   8C    basis set group =>   2
Atom   9H    basis set group =>   1
Atom  10C    basis set group =>   2
Atom  11H    basis set group =>   1
Atom  12H    basis set group =>   1
Atom  13H    basis set group =>   1
Atom  14C    basis set group =>   2
Atom  15H    basis set group =>   1
Atom  16H    basis set group =>   1
Atom  17H    basis set group =>   1
Atom  18C    basis set group =>   2
Atom  19O    basis set group =>   4
Atom  20O    basis set group =>   4
Atom  21H    basis set group =>   1
-------------------------
ECP PARAMETER INFORMATION
-------------------------



------------------------------------------------------------------------------
                           ORCA GTO INTEGRAL CALCULATION
------------------------------------------------------------------------------

                         BASIS SET STATISTICS AND STARTUP INFO

 # of primitive gaussian shells          ...  173
 # of primitive gaussian functions       ...  307
 # of contracted shells                  ...   93
 # of contracted basis functions         ...  191
 Highest angular momentum                ...    2
 Maximum contraction depth               ...    5
 Integral package used                   ... LIBINT
 Integral threshhold            Thresh   ... 2.500e-011
 Primitive cut-off              TCut     ... 2.500e-012


------------------------------ INTEGRAL EVALUATION ----------------------------


 * One electron integrals 

   ECP integrals                          Pre-screening matrix                    ... done
 Shell pair data                         ... done (   0.001 sec)

Timings:
 Total evaluation time               ...     0.003 sec (   0.000 min)
 One electron matrix time            ...     0.024 sec (   0.000 min) =800.0%
 Schwartz matrix evaluation time     ...     0.080 sec (   0.001 min) =2666.7%

-------------------------------------------------------------------------------
                                 ORCA SCF
-------------------------------------------------------------------------------

------------
SCF SETTINGS
------------
Hamiltonian:
 Density Functional     Method          .... DFT(GTOs)
 Exchange Functional    Exchange        .... PBE
   PBE kappa parameter   XKappa         ....  0.804000
   PBE mue parameter    XMuePBE         ....  0.219520
 Correlation Functional Correlation     .... PBE
   PBE beta parameter  CBetaPBE         ....  0.066725
 LDA part of GGA corr.  LDAOpt          .... PW91-LDA
 Gradients option       PostSCFGGA      .... off
 Hybrid DFT is turned on
   Fraction HF Exchange ScalHFX         ....  0.250000
   Scaling of DF-GGA-X  ScalDFX         ....  0.750000
   Scaling of DF-GGA-C  ScalDFC         ....  1.000000
   Scaling of DF-LDA-C  ScalLDAC        ....  1.000000
   Perturbative correction              ....  0.000000
   NL short-range parameter             ....  6.900000


General Settings:
 Integral files         IntName         .... leucine
 Hartree-Fock type      HFTyp           .... RHF
 Total Charge           Charge          ....    0
 Multiplicity           Mult            ....    1
 Number of Electrons    NEL             ....   72
 Basis Dimension        Dim             ....  191
 Nuclear Repulsion      ENuc            ....    476.5233668122 Eh

Convergence Acceleration:
 DIIS                   CNVDIIS         .... on
   Start iteration      DIISMaxIt       ....    12
   Startup error        DIISStart       ....  0.200000
   # of expansion vecs  DIISMaxEq       ....     5
   Bias factor          DIISBfac        ....   1.050
   Max. coefficient     DIISMaxC        ....  10.000
 Newton-Raphson         CNVNR           .... off
 SOSCF                  CNVSOSCF        .... on
   Start iteration      SOSCFMaxIt      ....   150
   Startup grad/error   SOSCFStart      ....  0.003300
 Level Shifting         CNVShift        .... on
   Level shift para.    LevelShift      ....    0.2500
   Turn off err/grad.   ShiftErr        ....    0.0010
 Zerner damping         CNVZerner       .... off
 Static damping         CNVDamp         .... on
   Fraction old density DampFac         ....    0.7000
   Max. Damping (<1)    DampMax         ....    0.9800
   Min. Damping (>=0)   DampMin         ....    0.0000
   Turn off err/grad.   DampErr         ....    0.1000
 Fernandez-Rico         CNVRico         .... off

SCF Procedure:
 Maximum # iterations   MaxIter         ....   125
 SCF integral mode      SCFMode         .... Direct
   Integral package                     .... LIBINT
 Reset frequeny         DirectResetFreq ....    20
 Integral Threshold     Thresh          .... 2.500e-011 Eh
 Primitive CutOff       TCut            .... 2.500e-012 Eh

Convergence Tolerance:
 Convergence Check Mode ConvCheckMode   .... Total+1el-Energy
 Convergence forced     ConvForced      .... 0
 Energy Change          TolE            .... 1.000e-008 Eh
 1-El. energy change                    .... 1.000e-005 Eh
 Orbital Gradient       TolG            .... 1.000e-005
 Orbital Rotation angle TolX            .... 1.000e-005
 DIIS Error             TolErr          .... 5.000e-007


Diagonalization of the overlap matrix:
Smallest eigenvalue                        ... 1.180e-003
Time for diagonalization                   ...    0.007 sec
Threshold for overlap eigenvalues          ... 1.000e-008
Number of eigenvalues below threshold      ... 0
Time for construction of square roots      ...    0.005 sec
Total time needed                          ...    0.012 sec

-------------------
DFT GRID GENERATION
-------------------

General Integration Accuracy     IntAcc      ...  4.340
Radial Grid Type                 RadialGrid  ... Gauss-Chebyshev
Angular Grid (max. acc.)         AngularGrid ... Lebedev-110
Angular grid pruning method      GridPruning ... 3 (G Style)
Weight generation scheme         WeightScheme... Becke
Basis function cutoff            BFCut       ...   1.0000e-011
Integration weight cutoff        WCut        ...   1.0000e-014
Grids for H and He will be reduced by one unit

# of grid points (after initial pruning)     ...  25392 (   0.0 sec)
# of grid points (after weights+screening)   ...  23124 (   0.1 sec)
nearest neighbour list constructed           ...    0.0 sec
Grid point re-assignment to atoms done       ...    0.0 sec
Grid point division into batches done        ...    0.0 sec
Reduced shell lists constructed in    0.1 sec

Total number of grid points                  ...    23124
Total number of batches                      ...      374
Average number of points per batch           ...       61
Average number of grid points per atom       ...     1051
Average number of shells per batch           ...    64.51 (69.37%)
Average number of basis functions per batch  ...   127.32 (66.66%)
Average number of large shells per batch     ...    48.64 (75.39%)
Average number of large basis fcns per batch ...    93.38 (73.34%)
Maximum spatial batch extension              ...  27.48, 20.68, 20.26 au
Average spatial batch extension              ...   3.84,  3.75,  3.58 au

Time for grid setup =    0.230 sec

------------------------------
INITIAL GUESS: MODEL POTENTIAL
------------------------------
Loading Hartree-Fock densities                     ... done
Calculating cut-offs                               ... done
Setting up the integral package                    ... done
Initializing the effective Hamiltonian             ... done
Starting the Coulomb interaction                   ... done (   0.1 sec)
Reading the grid                                   ... done
Mapping shells                                     ... done
Starting the XC term evaluation                    ... done (   0.2 sec)
  promolecular density results
     # of electrons  =     71.985554463
     EX              =    -57.324733146
     EC              =     -2.378105877
     EX+EC           =    -59.702839024
Transforming the Hamiltonian                       ... done (   0.0 sec)
Diagonalizing the Hamiltonian                      ... done (   0.0 sec)
Back transforming the eigenvectors                 ... done (   0.0 sec)
Now organizing SCF variables                       ... done
                      ------------------
                      INITIAL GUESS DONE (   0.6 sec)
                      ------------------
--------------
SCF ITERATIONS
--------------
ITER       Energy         Delta-E        Max-DP      RMS-DP      [F,P]     Damp
               ***  Starting incremental Fock matrix formation  ***
  0   -440.5302912398   0.000000000000 0.09050645  0.00242365  0.2553347 0.7000
  1   -440.6803034944  -0.150012254627 0.05270253  0.00158781  0.1060010 0.7000
                               ***Turning on DIIS***
  2   -440.7370550050  -0.056751510526 0.06229503  0.00242524  0.0434828 0.0000
  3   -440.8251581138  -0.088103108809 0.03471872  0.00111616  0.0579960 0.0000
  4   -440.8459024221  -0.020744308357 0.01183496  0.00033383  0.0125474 0.0000
  5   -440.8469515391  -0.001049116992 0.00451239  0.00010722  0.0074794 0.0000
                      *** Initiating the SOSCF procedure ***
                           *** Shutting down DIIS ***
                      *** Re-Reading the Fockian *** 
                      *** Removing any level shift *** 
ITER      Energy       Delta-E        Grad      Rot      Max-DP    RMS-DP
  6   -440.84705456  -0.0001030170  0.000317  0.000317  0.000998  0.000037
               *** Restarting incremental Fock matrix formation ***
  7   -440.84706073  -0.0000061737  0.000183  0.000529  0.000742  0.000025
  8   -440.84706052   0.0000002113  0.000358  0.000454  0.000492  0.000011
  9   -440.84706194  -0.0000014183  0.000078  0.000152  0.000220  0.000006
 10   -440.84706186   0.0000000800  0.000086  0.000082  0.000133  0.000003
 11   -440.84706200  -0.0000001468  0.000008  0.000013  0.000030  0.000001
 12   -440.84706200  -0.0000000003  0.000009  0.000007  0.000016  0.000000
                  ***Gradient check signals convergence***
              ***Rediagonalizing the Fockian in SOSCF/NRSCF***

               *****************************************************
               *                     SUCCESS                       *
               *           SCF CONVERGED AFTER  13 CYCLES          *
               *****************************************************

Setting up the final grid:

General Integration Accuracy     IntAcc      ...  4.670
Radial Grid Type                 RadialGrid  ... Gauss-Chebyshev
Angular Grid (max. acc.)         AngularGrid ... Lebedev-302
Angular grid pruning method      GridPruning ... 3 (G Style)
Weight generation scheme         WeightScheme... Becke
Basis function cutoff            BFCut       ...   1.0000e-011
Integration weight cutoff        WCut        ...   1.0000e-014
Grids for H and He will be reduced by one unit

# of grid points (after initial pruning)     ... 100030 (   0.0 sec)
# of grid points (after weights+screening)   ...  89646 (   0.3 sec)
nearest neighbour list constructed           ...    0.0 sec
Grid point re-assignment to atoms done       ...    0.0 sec
Grid point division into batches done        ...    0.4 sec
Reduced shell lists constructed in    1.1 sec

Total number of grid points                  ...    89646
Total number of batches                      ...     1411
Average number of points per batch           ...       63
Average number of grid points per atom       ...     4075
Average number of shells per batch           ...    58.99 (63.43%)
Average number of basis functions per batch  ...   115.21 (60.32%)
Average number of large shells per batch     ...    43.55 (73.83%)
Average number of large basis fcns per batch ...    82.68 (71.76%)
Maximum spatial batch extension              ...  21.41, 22.40, 19.39 au
Average spatial batch extension              ...   2.38,  2.42,  2.32 au

Final grid set up in    1.5 sec
Final integration                            ... done (   1.2 sec)
Change in XC energy                          ...    -0.000354187
Integrated number of electrons               ...    72.000024061
Previous integrated no of electrons          ...    71.995330783

----------------
TOTAL SCF ENERGY
----------------

Total Energy       :         -440.84741619 Eh          -11996.06806 eV

Components:
Nuclear Repulsion  :          476.52336681 Eh           12966.86003 eV
Electronic Energy  :         -917.37078300 Eh          -24962.92810 eV
One Electron Energy:        -1544.17345592 Eh          -42019.09595 eV
Two Electron Energy:          626.80267292 Eh           17056.16785 eV

Virial components:
Potential Energy   :         -877.10946453 Eh          -23867.36192 eV
Kinetic Energy     :          436.26204834 Eh           11871.29386 eV
Virial Ratio       :            2.01051058


DFT components:
N(Alpha)           :       36.000012030371 electrons
N(Beta)            :       36.000012030371 electrons
N(Total)           :       72.000024060742 electrons
E(X)               :      -43.834454554671 Eh       
E(C)               :       -2.399368853492 Eh       
E(XC)              :      -46.233823408164 Eh       

---------------
SCF CONVERGENCE
---------------

  Last Energy change         ...  -1.6520e-009  Tolerance :  1.0000e-008
  Last MAX-Density change    ...   3.0597e-006  Tolerance :  1.0000e-007
  Last RMS-Density change    ...   5.8074e-008  Tolerance :  5.0000e-009
  Last Orbital Gradient      ...   3.6264e-007  Tolerance :  1.0000e-005
  Last Orbital Rotation      ...   6.0620e-007  Tolerance :  1.0000e-005

             **** THE GBW FILE WAS UPDATED (leucine.gbw) ****
             **** DENSITY FILE WAS UPDATED (leucine.scfp.tmp) ****
             **** ENERGY FILE WAS UPDATED (leucine.en.tmp) ****
----------------
ORBITAL ENERGIES
----------------

  NO   OCC          E(Eh)            E(eV) 
   0   2.0000     -19.252710      -523.8929 
   1   2.0000     -19.188692      -522.1509 
   2   2.0000     -14.379575      -391.2881 
   3   2.0000     -10.361392      -281.9478 
   4   2.0000     -10.277461      -279.6639 
   5   2.0000     -10.247261      -278.8422 
   6   2.0000     -10.238289      -278.5980 
   7   2.0000     -10.233188      -278.4592 
   8   2.0000     -10.231285      -278.4074 
   9   2.0000      -1.113132       -30.2899 
  10   2.0000      -1.018081       -27.7034 
  11   2.0000      -0.904617       -24.6159 
  12   2.0000      -0.823719       -22.4145 
  13   2.0000      -0.748977       -20.3807 
  14   2.0000      -0.697793       -18.9879 
  15   2.0000      -0.687591       -18.7103 
  16   2.0000      -0.621750       -16.9187 
  17   2.0000      -0.571124       -15.5411 
  18   2.0000      -0.538052       -14.6411 
  19   2.0000      -0.489569       -13.3219 
  20   2.0000      -0.484281       -13.1780 
  21   2.0000      -0.478496       -13.0205 
  22   2.0000      -0.457147       -12.4396 
  23   2.0000      -0.446372       -12.1464 
  24   2.0000      -0.435977       -11.8635 
  25   2.0000      -0.420593       -11.4449 
  26   2.0000      -0.403514       -10.9802 
  27   2.0000      -0.394487       -10.7345 
  28   2.0000      -0.383369       -10.4320 
  29   2.0000      -0.371905       -10.1200 
  30   2.0000      -0.348107        -9.4725 
  31   2.0000      -0.340724        -9.2716 
  32   2.0000      -0.338586        -9.2134 
  33   2.0000      -0.323774        -8.8103 
  34   2.0000      -0.281593        -7.6625 
  35   2.0000      -0.249170        -6.7803 
  36   0.0000       0.010054         0.2736 
  37   0.0000       0.053045         1.4434 
  38   0.0000       0.063752         1.7348 
  39   0.0000       0.081042         2.2053 
  40   0.0000       0.087977         2.3940 
  41   0.0000       0.101992         2.7754 
  42   0.0000       0.123547         3.3619 
  43   0.0000       0.128751         3.5035 
  44   0.0000       0.140600         3.8259 
  45   0.0000       0.147173         4.0048 
  46   0.0000       0.166041         4.5182 
  47   0.0000       0.174783         4.7561 
  48   0.0000       0.179773         4.8919 
  49   0.0000       0.192110         5.2276 
  50   0.0000       0.215583         5.8663 
  51   0.0000       0.219537         5.9739 
  52   0.0000       0.233598         6.3565 
  53   0.0000       0.244339         6.6488 
  54   0.0000       0.254259         6.9187 
  55   0.0000       0.285379         7.7656 
  56   0.0000       0.333892         9.0857 
  57   0.0000       0.359636         9.7862 
  58   0.0000       0.410967        11.1830 
  59   0.0000       0.426137        11.5958 
  60   0.0000       0.445743        12.1293 
  61   0.0000       0.469317        12.7708 
  62   0.0000       0.472082        12.8460 
  63   0.0000       0.492328        13.3969 
  64   0.0000       0.520332        14.1589 
  65   0.0000       0.525007        14.2862 
  66   0.0000       0.547662        14.9027 
  67   0.0000       0.586582        15.9617 
  68   0.0000       0.605967        16.4892 
  69   0.0000       0.613051        16.6820 
  70   0.0000       0.621969        16.9246 
  71   0.0000       0.632491        17.2110 
  72   0.0000       0.641991        17.4695 
  73   0.0000       0.645136        17.5550 
  74   0.0000       0.651135        17.7183 
  75   0.0000       0.663609        18.0577 
  76   0.0000       0.669031        18.2053 
  77   0.0000       0.675428        18.3793 
  78   0.0000       0.683663        18.6034 
  79   0.0000       0.688351        18.7310 
  80   0.0000       0.698236        19.0000 
  81   0.0000       0.702836        19.1251 
  82   0.0000       0.715472        19.4690 
  83   0.0000       0.719547        19.5799 
  84   0.0000       0.724995        19.7281 
  85   0.0000       0.734895        19.9975 
  86   0.0000       0.754723        20.5371 
  87   0.0000       0.778616        21.1872 
  88   0.0000       0.788348        21.4521 
  89   0.0000       0.815792        22.1988 
  90   0.0000       0.845448        23.0058 
  91   0.0000       0.867060        23.5939 
  92   0.0000       0.894522        24.3412 
  93   0.0000       0.955387        25.9974 
  94   0.0000       0.999335        27.1933 
  95   0.0000       1.020593        27.7717 
  96   0.0000       1.037340        28.2274 
  97   0.0000       1.041549        28.3420 
  98   0.0000       1.089345        29.6426 
  99   0.0000       1.095601        29.8128 
 100   0.0000       1.123176        30.5632 
 101   0.0000       1.131778        30.7972 
 102   0.0000       1.151580        31.3361 
 103   0.0000       1.177796        32.0494 
 104   0.0000       1.223296        33.2876 
 105   0.0000       1.256159        34.1818 
 106   0.0000       1.271213        34.5915 
 107   0.0000       1.295821        35.2611 
 108   0.0000       1.323157        36.0049 
 109   0.0000       1.333835        36.2955 
 110   0.0000       1.362735        37.0819 
 111   0.0000       1.450596        39.4727 
 112   0.0000       1.456382        39.6302 
 113   0.0000       1.482297        40.3354 
 114   0.0000       1.494607        40.6703 
 115   0.0000       1.533823        41.7375 
 116   0.0000       1.544393        42.0251 
 117   0.0000       1.575926        42.8831 
 118   0.0000       1.601792        43.5870 
 119   0.0000       1.612828        43.8873 
 120   0.0000       1.655093        45.0374 
 121   0.0000       1.702804        46.3357 
 122   0.0000       1.723826        46.9077 
 123   0.0000       1.745862        47.5073 
 124   0.0000       1.759394        47.8756 
 125   0.0000       1.768347        48.1192 
 126   0.0000       1.773499        48.2594 
 127   0.0000       1.778531        48.3963 
 128   0.0000       1.802089        49.0373 
 129   0.0000       1.805413        49.1278 
 130   0.0000       1.823409        49.6175 
 131   0.0000       1.826851        49.7111 
 132   0.0000       1.840623        50.0859 
 133   0.0000       1.846044        50.2334 
 134   0.0000       1.861955        50.6664 
 135   0.0000       1.880439        51.1693 
 136   0.0000       1.894602        51.5547 
 137   0.0000       1.934909        52.6515 
 138   0.0000       1.939550        52.7778 
 139   0.0000       1.953176        53.1486 
 140   0.0000       1.962405        53.3997 
 141   0.0000       1.973498        53.7016 
 142   0.0000       1.987318        54.0777 
 143   0.0000       2.020653        54.9848 
 144   0.0000       2.041709        55.5577 
 145   0.0000       2.061355        56.0923 
 146   0.0000       2.078303        56.5535 
 147   0.0000       2.108031        57.3625 
 148   0.0000       2.122485        57.7558 
 149   0.0000       2.187882        59.5353 
 150   0.0000       2.208627        60.0998 
 151   0.0000       2.256086        61.3912 
 152   0.0000       2.277635        61.9776 
 153   0.0000       2.297946        62.5303 
 154   0.0000       2.338557        63.6354 
 155   0.0000       2.350695        63.9657 
 156   0.0000       2.397880        65.2496 
 157   0.0000       2.405838        65.4662 
 158   0.0000       2.441411        66.4342 
 159   0.0000       2.483877        67.5897 
 160   0.0000       2.490224        67.7625 
 161   0.0000       2.553555        69.4858 
 162   0.0000       2.570285        69.9410 
 163   0.0000       2.581249        70.2394 
 164   0.0000       2.616096        71.1876 
 165   0.0000       2.653094        72.1944 
 166   0.0000       2.660966        72.4086 
 167   0.0000       2.710658        73.7608 
 168   0.0000       2.741283        74.5941 
 169   0.0000       2.752173        74.8904 
 170   0.0000       2.830611        77.0248 
 171   0.0000       2.842199        77.3402 
 172   0.0000       2.863904        77.9308 
 173   0.0000       2.877173        78.2919 
 174   0.0000       2.888364        78.5964 
 175   0.0000       2.905509        79.0629 
 176   0.0000       2.936953        79.9186 
 177   0.0000       2.961845        80.5959 
 178   0.0000       2.981417        81.1285 
 179   0.0000       2.989110        81.3378 
 180   0.0000       2.991652        81.4070 
 181   0.0000       3.068070        83.4864 
 182   0.0000       3.074809        83.6698 
 183   0.0000       3.105899        84.5158 
 184   0.0000       3.200859        87.0998 
 185   0.0000       3.246112        88.3312 
 186   0.0000       3.251090        88.4667 
 187   0.0000       3.377132        91.8964 
 188   0.0000       3.587628        97.6243 
 189   0.0000       3.604112        98.0729 
 190   0.0000       3.793884       103.2368 

                    ********************************
                    * MULLIKEN POPULATION ANALYSIS *
                    ********************************

-----------------------
MULLIKEN ATOMIC CHARGES
-----------------------
   0 H :    0.045828
   1 C :   -0.009951
   2 N :   -0.274575
   3 H :    0.129050
   4 H :    0.131536
   5 C :   -0.013751
   6 H :    0.045876
   7 H :    0.030796
   8 C :   -0.213720
   9 H :    0.022828
  10 C :   -0.056283
  11 H :    0.047870
  12 H :    0.043196
  13 H :    0.043232
  14 C :   -0.042576
  15 H :    0.046698
  16 H :    0.042186
  17 H :    0.041826
  18 C :    0.231694
  19 O :   -0.274950
  20 O :   -0.220307
  21 H :    0.203498
Sum of atomic charges:   -0.0000000

--------------------------------
MULLIKEN REDUCED ORBITAL CHARGES
--------------------------------
  0 H s       :     0.933753  s :     0.933753
      pz      :     0.004609  p :     0.020419
      px      :     0.003267
      py      :     0.012543
  1 C s       :     3.062454  s :     3.062454
      pz      :     0.969725  p :     2.890437
      px      :     0.878105
      py      :     1.042607
      dz2     :     0.014890  d :     0.057060
      dxz     :     0.010592
      dyz     :     0.004565
      dx2y2   :     0.014175
      dxy     :     0.012839
  2 N s       :     3.452621  s :     3.452621
      pz      :     1.247606  p :     3.804295
      px      :     1.206676
      py      :     1.350013
      dz2     :     0.006898  d :     0.017659
      dxz     :     0.001626
      dyz     :     0.000239
      dx2y2   :     0.006474
      dxy     :     0.002422
  3 H s       :     0.826355  s :     0.826355
      pz      :     0.023252  p :     0.044595
      px      :     0.009271
      py      :     0.012072
  4 H s       :     0.824853  s :     0.824853
      pz      :     0.011526  p :     0.043611
      px      :     0.010023
      py      :     0.022062
  5 C s       :     3.081134  s :     3.081134
      pz      :     0.939068  p :     2.899607
      px      :     0.965521
      py      :     0.995018
      dz2     :     0.008610  d :     0.033009
      dxz     :     0.005625
      dyz     :     0.006738
      dx2y2   :     0.007662
      dxy     :     0.004374
  6 H s       :     0.932319  s :     0.932319
      pz      :     0.005008  p :     0.021805
      px      :     0.005200
      py      :     0.011597
  7 H s       :     0.947190  s :     0.947190
      pz      :     0.004335  p :     0.022015
      px      :     0.013283
      py      :     0.004397
  8 C s       :     3.155241  s :     3.155241
      pz      :     0.979364  p :     3.014326
      px      :     1.030155
      py      :     1.004807
      dz2     :     0.011327  d :     0.044153
      dxz     :     0.006281
      dyz     :     0.008888
      dx2y2   :     0.010078
      dxy     :     0.007578
  9 H s       :     0.956341  s :     0.956341
      pz      :     0.004392  p :     0.020832
      px      :     0.012613
      py      :     0.003827
 10 C s       :     3.049022  s :     3.049022
      pz      :     1.001534  p :     2.980444
      px      :     1.010222
      py      :     0.968688
      dz2     :     0.008575  d :     0.026817
      dxz     :     0.002104
      dyz     :     0.003544
      dx2y2   :     0.006306
      dxy     :     0.006288
 11 H s       :     0.929061  s :     0.929061
      pz      :     0.014045  p :     0.023069
      px      :     0.004760
      py      :     0.004264
 12 H s       :     0.933474  s :     0.933474
      pz      :     0.005708  p :     0.023331
      px      :     0.007394
      py      :     0.010228
 13 H s       :     0.933944  s :     0.933944
      pz      :     0.005283  p :     0.022825
      px      :     0.013252
      py      :     0.004290
 14 C s       :     3.047814  s :     3.047814
      pz      :     0.996006  p :     2.967718
      px      :     1.001614
      py      :     0.970098
      dz2     :     0.008307  d :     0.027044
      dxz     :     0.002328
      dyz     :     0.003759
      dx2y2   :     0.007742
      dxy     :     0.004908
 15 H s       :     0.930291  s :     0.930291
      pz      :     0.014053  p :     0.023011
      px      :     0.004637
      py      :     0.004321
 16 H s       :     0.934820  s :     0.934820
      pz      :     0.005349  p :     0.022994
      px      :     0.013431
      py      :     0.004214
 17 H s       :     0.935177  s :     0.935177
      pz      :     0.005940  p :     0.022997
      px      :     0.005780
      py      :     0.011277
 18 C s       :     3.042254  s :     3.042254
      pz      :     1.003346  p :     2.594749
      px      :     0.791432
      py      :     0.799971
      dz2     :     0.030752  d :     0.131303
      dxz     :     0.012437
      dyz     :     0.037629
      dx2y2   :     0.024041
      dxy     :     0.026443
 19 O s       :     3.765199  s :     3.765199
      pz      :     1.645916  p :     4.491923
      px      :     1.423722
      py      :     1.422285
      dz2     :     0.002384  d :     0.017828
      dxz     :     0.002024
      dyz     :     0.005323
      dx2y2   :     0.004138
      dxy     :     0.003960
 20 O s       :     3.665876  s :     3.665876
      pz      :     1.253388  p :     4.543302
      px      :     1.711028
      py      :     1.578886
      dz2     :     0.003663  d :     0.011128
      dxz     :     0.000426
      dyz     :     0.001888
      dx2y2   :     0.002458
      dxy     :     0.002693
 21 H s       :     0.728808  s :     0.728808
      pz      :     0.038257  p :     0.067694
      px      :     0.016054
      py      :     0.013384


                     *******************************
                     * LOEWDIN POPULATION ANALYSIS *
                     *******************************

----------------------
LOEWDIN ATOMIC CHARGES
----------------------
   0 H :    0.032966
   1 C :   -0.017783
   2 N :   -0.117009
   3 H :    0.067651
   4 H :    0.071015
   5 C :   -0.045193
   6 H :    0.031270
   7 H :    0.028286
   8 C :   -0.057741
   9 H :    0.018654
  10 C :   -0.071233
  11 H :    0.031452
  12 H :    0.024362
  13 H :    0.030528
  14 C :   -0.065397
  15 H :    0.029742
  16 H :    0.028747
  17 H :    0.029251
  18 C :    0.104111
  19 O :   -0.207072
  20 O :   -0.052070
  21 H :    0.105461

-------------------------------
LOEWDIN REDUCED ORBITAL CHARGES
-------------------------------
  0 H s       :     0.900009  s :     0.900009
      pz      :     0.016297  p :     0.067025
      px      :     0.012933
      py      :     0.037796
  1 C s       :     2.851027  s :     2.851027
      pz      :     1.018385  p :     3.035956
      px      :     0.951194
      py      :     1.066377
      dz2     :     0.037174  d :     0.130800
      dxz     :     0.021770
      dyz     :     0.012189
      dx2y2   :     0.031718
      dxy     :     0.027948
  2 N s       :     3.142816  s :     3.142816
      pz      :     1.290322  p :     3.934162
      px      :     1.261014
      py      :     1.382826
      dz2     :     0.015373  d :     0.040031
      dxz     :     0.004135
      dyz     :     0.000896
      dx2y2   :     0.014259
      dxy     :     0.005368
  3 H s       :     0.815031  s :     0.815031
      pz      :     0.064068  p :     0.117317
      px      :     0.024863
      py      :     0.028387
  4 H s       :     0.813109  s :     0.813109
      pz      :     0.025642  p :     0.115876
      px      :     0.027185
      py      :     0.063048
  5 C s       :     2.864547  s :     2.864547
      pz      :     1.013629  p :     3.096628
      px      :     1.044836
      py      :     1.038163
      dz2     :     0.023583  d :     0.084018
      dxz     :     0.012911
      dyz     :     0.016338
      dx2y2   :     0.018876
      dxy     :     0.012311
  6 H s       :     0.902217  s :     0.902217
      pz      :     0.016285  p :     0.066513
      px      :     0.014299
      py      :     0.035929
  7 H s       :     0.905769  s :     0.905769
      pz      :     0.014391  p :     0.065945
      px      :     0.038933
      py      :     0.012621
  8 C s       :     2.851329  s :     2.851329
      pz      :     1.021085  p :     3.103645
      px      :     1.051761
      py      :     1.030799
      dz2     :     0.028445  d :     0.102768
      dxz     :     0.013285
      dyz     :     0.019572
      dx2y2   :     0.023337
      dxy     :     0.018128
  9 H s       :     0.914653  s :     0.914653
      pz      :     0.015245  p :     0.066692
      px      :     0.037857
      py      :     0.013590
 10 C s       :     2.854859  s :     2.854859
      pz      :     1.055582  p :     3.147309
      px      :     1.059426
      py      :     1.032301
      dz2     :     0.021991  d :     0.069065
      dxz     :     0.005369
      dyz     :     0.009499
      dx2y2   :     0.016389
      dxy     :     0.015818
 11 H s       :     0.904016  s :     0.904016
      pz      :     0.040090  p :     0.064531
      px      :     0.011956
      py      :     0.012486
 12 H s       :     0.910034  s :     0.910034
      pz      :     0.014895  p :     0.065603
      px      :     0.020307
      py      :     0.030401
 13 H s       :     0.905090  s :     0.905090
      pz      :     0.013959  p :     0.064382
      px      :     0.037699
      py      :     0.012724
 14 C s       :     2.856242  s :     2.856242
      pz      :     1.054434  p :     3.139596
      px      :     1.053489
      py      :     1.031673
      dz2     :     0.021538  d :     0.069559
      dxz     :     0.005985
      dyz     :     0.009775
      dx2y2   :     0.019113
      dxy     :     0.013148
 15 H s       :     0.905958  s :     0.905958
      pz      :     0.040018  p :     0.064299
      px      :     0.012105
      py      :     0.012177
 16 H s       :     0.906949  s :     0.906949
      pz      :     0.013819  p :     0.064304
      px      :     0.038437
      py      :     0.012049
 17 H s       :     0.906531  s :     0.906531
      pz      :     0.015530  p :     0.064218
      px      :     0.015659
      py      :     0.033029
 18 C s       :     2.861030  s :     2.861030
      pz      :     1.022932  p :     2.750392
      px      :     0.803342
      py      :     0.924118
      dz2     :     0.068666  d :     0.284466
      dxz     :     0.024459
      dyz     :     0.084105
      dx2y2   :     0.051472
      dxy     :     0.055764
 19 O s       :     3.559679  s :     3.559679
      pz      :     1.675898  p :     4.617204
      px      :     1.428832
      py      :     1.512473
      dz2     :     0.003608  d :     0.030190
      dxz     :     0.002761
      dyz     :     0.010824
      dx2y2   :     0.007112
      dxy     :     0.005885
 20 O s       :     3.402436  s :     3.402436
      pz      :     1.345447  p :     4.625744
      px      :     1.679722
      py      :     1.600575
      dz2     :     0.009701  d :     0.023889
      dxz     :     0.001359
      dyz     :     0.004422
      dx2y2   :     0.003891
      dxy     :     0.004517
 21 H s       :     0.717058  s :     0.717058
      pz      :     0.096904  p :     0.177480
      px      :     0.043923
      py      :     0.036653


                      *****************************
                      * MAYER POPULATION ANALYSIS *
                      *****************************

  NA   - Mulliken gross atomic population
  ZA   - Total nuclear charge
  QA   - Mulliken gross atomic charge
  VA   - Mayer's total valence
  BVA  - Mayer's bonded valence
  FA   - Mayer's free valence

  ATOM       NA         ZA         QA         VA         BVA        FA
  0 H      0.9542     1.0000     0.0458     1.0002     1.0002    -0.0000
  1 C      6.0100     6.0000    -0.0100     3.9039     3.9039     0.0000
  2 N      7.2746     7.0000    -0.2746     3.0326     3.0326     0.0000
  3 H      0.8710     1.0000     0.1290     0.9957     0.9957     0.0000
  4 H      0.8685     1.0000     0.1315     1.0004     1.0004    -0.0000
  5 C      6.0138     6.0000    -0.0138     3.8920     3.8920     0.0000
  6 H      0.9541     1.0000     0.0459     1.0039     1.0039     0.0000
  7 H      0.9692     1.0000     0.0308     0.9834     0.9834     0.0000
  8 C      6.2137     6.0000    -0.2137     4.1253     4.1253    -0.0000
  9 H      0.9772     1.0000     0.0228     0.9864     0.9864     0.0000
 10 C      6.0563     6.0000    -0.0563     3.9206     3.9206    -0.0000
 11 H      0.9521     1.0000     0.0479     0.9860     0.9860    -0.0000
 12 H      0.9568     1.0000     0.0432     0.9889     0.9889    -0.0000
 13 H      0.9568     1.0000     0.0432     0.9918     0.9918     0.0000
 14 C      6.0426     6.0000    -0.0426     3.9536     3.9536    -0.0000
 15 H      0.9533     1.0000     0.0467     0.9849     0.9849    -0.0000
 16 H      0.9578     1.0000     0.0422     0.9905     0.9905    -0.0000
 17 H      0.9582     1.0000     0.0418     0.9864     0.9864    -0.0000
 18 C      5.7683     6.0000     0.2317     4.2995     4.2995     0.0000
 19 O      8.2750     8.0000    -0.2750     2.1928     2.1928    -0.0000
 20 O      8.2203     8.0000    -0.2203     2.2272     2.2272    -0.0000
 21 H      0.7965     1.0000     0.2035     1.0106     1.0106    -0.0000

  Mayer bond orders larger than 0.1
B(  0-H ,  1-C ) :   0.9151 B(  1-C ,  2-N ) :   1.0496 B(  1-C ,  5-C ) :   1.0050 
B(  1-C , 18-C ) :   0.9334 B(  2-N ,  3-H ) :   0.9625 B(  2-N ,  4-H ) :   0.9537 
B(  5-C ,  6-H ) :   0.9304 B(  5-C ,  7-H ) :   0.9321 B(  5-C ,  8-C ) :   1.0393 
B(  8-C ,  9-H ) :   0.9203 B(  8-C , 10-C ) :   1.0490 B(  8-C , 14-C ) :   1.0697 
B( 10-C , 11-H ) :   0.9676 B( 10-C , 12-H ) :   0.9660 B( 10-C , 13-H ) :   0.9648 
B( 14-C , 15-H ) :   0.9694 B( 14-C , 16-H ) :   0.9666 B( 14-C , 17-H ) :   0.9659 
B( 18-C , 19-O ) :   2.0527 B( 18-C , 20-O ) :   1.2332 B( 20-O , 21-H ) :   0.9291 


-------
TIMINGS
-------

Total SCF time: 0 days 0 hours 1 min 23 sec 

Total time                  ....      83.777 sec
Sum of individual times     ....      83.687 sec  ( 99.9%)

Fock matrix formation       ....      81.447 sec  ( 97.2%)
  XC integration            ....       6.211 sec  (  7.6% of F)
    Basis function eval.    ....       1.672 sec  ( 26.9% of XC)
    Density eval.           ....       1.907 sec  ( 30.7% of XC)
    XC-Functional eval.     ....       0.225 sec  (  3.6% of XC)
    XC-Potential eval.      ....       1.940 sec  ( 31.2% of XC)
Diagonalization             ....       0.065 sec  (  0.1%)
Density matrix formation    ....       0.002 sec  (  0.0%)
Population analysis         ....       0.026 sec  (  0.0%)
Initial guess               ....       0.354 sec  (  0.4%)
Orbital Transformation      ....       0.000 sec  (  0.0%)
Orbital Orthonormalization  ....       0.000 sec  (  0.0%)
DIIS solution               ....       0.004 sec  (  0.0%)
SOSCF solution              ....       0.012 sec  (  0.0%)
Grid generation             ....       1.777 sec  (  2.1%)

-------------------------   --------------------
FINAL SINGLE POINT ENERGY      -440.847416192139
-------------------------   --------------------

------------------------------------------------------------------------------
                         ORCA SCF GRADIENT CALCULATION
------------------------------------------------------------------------------

Gradient of the Kohn-Sham DFT energy:
Kohn-Sham wavefunction type      ... RKS
Hartree-Fock exchange scaling    ...    0.250
Number of operators              ...    1
Number of atoms                  ...   22
Basis set dimensions             ...  191
Integral neglect threshold       ... 2.5e-011
Integral primitive cutoff        ... 2.5e-012

Nuclear repulsion gradient       ... done
One Electron Gradient            
  ECP gradient                   ... done
Pre-screening matrix             ... done
Starting the two electron gradient:
Two electron gradient done
Exchange-correlation gradient    ... done

------------------
CARTESIAN GRADIENT
------------------

   1   H   :   -0.003508070   -0.004677803   -0.000322935
   2   C   :   -0.000409428    0.004916808   -0.018580526
   3   N   :   -0.005190013   -0.005154104   -0.005531519
   4   H   :    0.004733018   -0.006473840    0.022567728
   5   H   :    0.008981395    0.020443445   -0.006319588
   6   C   :    0.002191718    0.002681691   -0.001266869
   7   H   :    0.002998067    0.007069753    0.001013252
   8   H   :   -0.003787697   -0.003250573   -0.002003484
   9   C   :    0.010190963    0.002619708    0.003518729
  10   H   :    0.002799025    0.001554080    0.003584809
  11   C   :   -0.005790523   -0.001507127   -0.000896350
  12   H   :    0.001897915    0.001132551    0.005847967
  13   H   :    0.004832269   -0.002081237   -0.001180772
  14   H   :   -0.006176723    0.000214536   -0.002063858
  15   C   :   -0.005088394   -0.001852462    0.000618413
  16   H   :    0.001960334   -0.000677415    0.006048417
  17   H   :   -0.005958717   -0.001482886   -0.002130081
  18   H   :    0.004801544    0.004096353   -0.002610403
  19   C   :   -0.008108747   -0.033635969    0.059520842
  20   O   :    0.004750783    0.017875288   -0.017209372
  21   O   :    0.002580509    0.018463604   -0.039523953
  22   H   :   -0.008699229   -0.020274400   -0.003080446

Difference to translation invariance:
           :    0.0000000000    0.0000000000   -0.0000000000

Norm of the cartesian gradient     ...    0.0996975092
RMS gradient                       ...    0.0122719151
MAX gradient                       ...    0.0595208421

-------
TIMINGS
-------

Total SCF gradient time            ...       25.289 sec

One electron gradient       ....       0.150 sec  (  0.6%)
Prescreening matrices       ....       0.066 sec  (  0.3%)
Two electron gradient       ....      17.764 sec  ( 70.2%)
XC gradient                 ....       7.216 sec  ( 28.5%)
------------------------------------------------------------------------------
                         ORCA GEOMETRY RELAXATION STEP
------------------------------------------------------------------------------

Reading the OPT-File                    .... done
Getting information on internals        .... done
Copying old internal coords+grads       .... done
Making the new internal coordinates     .... (new redundants).... done
Validating the new internal coordinates .... (new redundants).... done
Calculating the B-matrix                .... done
Calculating the G,G- and P matrices     .... done
Transforming gradient to internals      .... done
Projecting the internal gradient        .... done
Number of atoms                         ....  22
Number of internal coordinates          .... 108
Current Energy                          ....  -440.847416192 Eh
Current gradient norm                   ....     0.099697509 Eh/bohr
Maximum allowed component of the step   ....  0.300
Current trust radius                    ....  0.300
Evaluating the initial hessian          ....  (Almloef) done
Projecting the Hessian                  .... done
Forming the augmented Hessian           .... done
Diagonalizing the augmented Hessian     .... done
Last element of RFO vector              ....  0.977437612
Lowest eigenvalues of augmented Hessian:
 -0.015973478  0.009699583  0.009732507  0.010592266  0.010807927
Length of the computed step             ....  0.216100056
The final length of the internal step   ....  0.216100056
Converting the step to cartesian space:
 Initial RMS(Int)=    0.0207942376
Transforming coordinates:
 Iter   0:  RMS(Cart)=    0.0481842973 RMS(Int)=    1.0461677321
 Iter   1:  RMS(Cart)=    0.0009728674 RMS(Int)=    0.0005291912
 Iter   2:  RMS(Cart)=    0.0000436106 RMS(Int)=    0.0000207807
 Iter   3:  RMS(Cart)=    0.0000020681 RMS(Int)=    0.0000013849
 Iter   4:  RMS(Cart)=    0.0000001059 RMS(Int)=    0.0000000537
 Iter   5:  RMS(Cart)=    0.0000000056 RMS(Int)=    0.0000000038
done
Storing new coordinates                 .... done

                                .--------------------.
          ----------------------|Geometry convergence|-------------------------
          Item                value                   Tolerance       Converged
          ---------------------------------------------------------------------
          RMS gradient        0.0078284812            0.0001000000      NO
          MAX gradient        0.0399302655            0.0003000000      NO
          RMS step            0.0207942376            0.0020000000      NO
          MAX step            0.1031484401            0.0040000000      NO
          ........................................................
          Max(Bonds)      0.0317      Max(Angles)    5.91
          Max(Dihed)        1.74      Max(Improp)    0.00
          ---------------------------------------------------------------------

The optimization has not yet converged - more geometry cycles are needed


    ---------------------------------------------------------------------------
                         Redundant Internal Coordinates
                            (Angstroem and degrees)

        Definition                    Value    dE/dq     Step     New-Value
    ----------------------------------------------------------------------------
     1. B(C   1,H   0)                1.1096  0.005179 -0.0078    1.1018   
     2. B(N   2,C   1)                1.4649  0.011274 -0.0135    1.4513   
     3. B(H   3,N   2)                1.0442  0.023835 -0.0317    1.0125   
     4. B(H   4,N   2)                1.0466  0.023110 -0.0310    1.0156   
     5. B(C   5,C   1)                1.5505  0.007183 -0.0105    1.5400   
     6. B(H   6,C   5)                1.1132  0.006861 -0.0105    1.1028   
     7. B(H   7,C   5)                1.1132  0.004525 -0.0069    1.1063   
     8. B(C   8,C   5)                1.5499  0.010901 -0.0159    1.5340   
     9. B(H   9,C   8)                1.1106  0.003908 -0.0059    1.1047   
    10. B(C  10,C   8)                1.5374  0.004448 -0.0062    1.5312   
    11. B(H  11,C  10)                1.1107  0.005965 -0.0090    1.1017   
    12. B(H  12,C  10)                1.1081  0.004605 -0.0069    1.1012   
    13. B(H  13,C  10)                1.1117  0.006406 -0.0097    1.1019   
    14. B(C  14,C   8)                1.5344  0.002963 -0.0041    1.5304   
    15. B(H  15,C  14)                1.1109  0.006121 -0.0093    1.1016   
    16. B(H  16,C  14)                1.1115  0.006392 -0.0097    1.1018   
    17. B(H  17,C  14)                1.1111  0.006240 -0.0095    1.1016   
    18. B(C  18,C   1)                1.5069  0.001108 -0.0014    1.5056   
    19. B(O  19,C  18)                1.2228  0.024755 -0.0125    1.2103   
    20. B(O  20,C  18)                1.3501  0.023752 -0.0189    1.3312   
    21. B(H  21,O  20)                0.9676  0.004399 -0.0045    0.9631   
    22. A(H   0,C   1,C  18)          107.03 -0.005624    0.84    107.87   
    23. A(H   0,C   1,N   2)          108.82  0.003479   -0.52    108.30   
    24. A(N   2,C   1,C   5)          111.96 -0.014031    2.83    114.79   
    25. A(H   0,C   1,C   5)          109.70  0.002798   -0.12    109.58   
    26. A(N   2,C   1,C  18)          109.16  0.008118   -1.92    107.24   
    27. A(C   5,C   1,C  18)          110.03  0.005631   -1.20    108.83   
    28. A(C   1,N   2,H   3)          110.63  0.000221   -0.29    110.34   
    29. A(C   1,N   2,H   4)          110.59  0.002905   -0.73    109.86   
    30. A(H   3,N   2,H   4)          109.20  0.000160   -0.57    108.63   
    31. A(C   1,C   5,H   6)          108.11  0.002051   -0.58    107.52   
    32. A(H   7,C   5,C   8)          108.36  0.000943   -0.07    108.29   
    33. A(H   6,C   5,C   8)          108.51 -0.003116    0.60    109.11   
    34. A(C   1,C   5,C   8)          115.33  0.001714   -0.16    115.17   
    35. A(H   6,C   5,H   7)          107.69  0.001349   -0.54    107.16   
    36. A(C   1,C   5,H   7)          108.59 -0.002912    0.71    109.30   
    37. A(H   9,C   8,C  10)          108.83  0.000743   -0.32    108.50   
    38. A(C   5,C   8,C  10)          112.08 -0.000530    0.27    112.35   
    39. A(C   5,C   8,H   9)          109.73  0.001251   -0.92    108.81   
    40. A(C  10,C   8,C  14)          109.37 -0.002053    0.90    110.27   
    41. A(H   9,C   8,C  14)          107.15 -0.000292    0.02    107.17   
    42. A(C   5,C   8,C  14)          109.55  0.000878    0.05    109.60   
    43. A(H  12,C  10,H  13)          109.01  0.002357   -0.58    108.43   
    44. A(H  11,C  10,H  13)          108.62  0.001520   -0.39    108.23   
    45. A(C   8,C  10,H  13)          110.60 -0.000305   -0.06    110.54   
    46. A(H  11,C  10,H  12)          107.08  0.001150    0.07    107.16   
    47. A(C   8,C  10,H  12)          111.32 -0.002931    0.57    111.89   
    48. A(C   8,C  10,H  11)          110.10 -0.001612    0.36    110.46   
    49. A(H  16,C  14,H  17)          108.77  0.002301   -0.51    108.26   
    50. A(H  15,C  14,H  17)          107.89  0.001652   -0.08    107.81   
    51. A(C   8,C  14,H  17)          110.21 -0.003257    0.63    110.84   
    52. A(H  15,C  14,H  16)          108.74  0.001641   -0.41    108.33   
    53. A(C   8,C  14,H  16)          110.87 -0.000349   -0.02    110.85   
    54. A(C   8,C  14,H  15)          110.29 -0.001819    0.37    110.66   
    55. A(O  19,C  18,O  20)          119.93 -0.021133    2.63    122.56   
    56. A(C   1,C  18,O  20)          119.64  0.030608   -4.00    115.65   
    57. A(C   1,C  18,O  19)          120.43 -0.009476    1.37    121.79   
    58. A(C  18,O  20,H  21)          121.52  0.039930   -5.91    115.61   
    59. D(H   4,N   2,C   1,C  18)     68.34  0.000353    0.03     68.37   
    60. D(H   3,N   2,C   1,H   0)    -54.05  0.002357   -1.71    -55.76   
    61. D(H   3,N   2,C   1,C   5)     67.38 -0.000819   -0.39     66.99   
    62. D(H   4,N   2,C   1,H   0)   -175.17  0.000071   -0.32   -175.49   
    63. D(H   3,N   2,C   1,C  18)   -170.54  0.002639   -1.36   -171.90   
    64. D(H   4,N   2,C   1,C   5)    -53.74 -0.003105    1.01    -52.73   
    65. D(H   6,C   5,C   1,H   0)   -179.03 -0.001382    1.00   -178.04   
    66. D(H   7,C   5,C   1,C  18)     55.04 -0.002075    0.66     55.70   
    67. D(C   8,C   5,C   1,C  18)    176.84 -0.001894    1.00    177.84   
    68. D(H   6,C   5,C   1,C  18)    -61.54 -0.003222    1.23    -60.30   
    69. D(H   7,C   5,C   1,N   2)    176.62  0.002700   -0.71    175.91   
    70. D(C   8,C   5,C   1,H   0)     59.34 -0.000054    0.76     60.10   
    71. D(H   7,C   5,C   1,H   0)    -62.46 -0.000235    0.42    -62.04   
    72. D(C   8,C   5,C   1,N   2)    -61.58  0.002881   -0.37    -61.95   
    73. D(H   6,C   5,C   1,N   2)     60.05  0.001552   -0.13     59.91   
    74. D(C  14,C   8,C   5,H   7)    -61.84  0.000426   -0.51    -62.35   
    75. D(C  14,C   8,C   5,C   1)    176.23  0.002321   -1.27    174.97   
    76. D(C  10,C   8,C   5,H   6)    176.43 -0.001493    0.49    176.91   
    77. D(C  10,C   8,C   5,C   1)    -62.17 -0.000026    0.08    -62.09   
    78. D(H   9,C   8,C   5,H   7)   -179.22 -0.000469   -0.02   -179.24   
    79. D(C  10,C   8,C   5,H   7)     59.75 -0.001921    0.84     60.59   
    80. D(C  14,C   8,C   5,H   6)     54.83  0.000854   -0.86     53.97   
    81. D(H   9,C   8,C   5,H   6)    -62.55 -0.000041   -0.37    -62.92   
    82. D(H   9,C   8,C   5,C   1)     58.86  0.001426   -0.78     58.08   
    83. D(H  12,C  10,C   8,C  14)   -175.66  0.000888   -0.19   -175.85   
    84. D(H  12,C  10,C   8,H   9)    -58.91 -0.000189    0.16    -58.75   
    85. D(H  12,C  10,C   8,C   5)     62.63  0.001552   -1.05     61.59   
    86. D(H  11,C  10,C   8,C  14)    -57.07 -0.000564    0.49    -56.57   
    87. D(H  11,C  10,C   8,H   9)     59.69 -0.001641    0.84     60.52   
    88. D(H  13,C  10,C   8,C   5)    -58.72  0.000756   -0.66    -59.38   
    89. D(H  11,C  10,C   8,C   5)   -178.77  0.000101   -0.37   -179.14   
    90. D(H  13,C  10,C   8,C  14)     62.98  0.000092    0.20     63.18   
    91. D(H  13,C  10,C   8,H   9)    179.74 -0.000985    0.54    180.28   
    92. D(H  17,C  14,C   8,C  10)    177.50 -0.000252    0.09    177.58   
    93. D(H  17,C  14,C   8,H   9)     59.69  0.000127   -0.02     59.67   
    94. D(H  17,C  14,C   8,C   5)    -59.29 -0.001683    1.04    -58.25   
    95. D(H  16,C  14,C   8,C  10)    -62.02  0.000257   -0.15    -62.18   
    96. D(H  16,C  14,C   8,H   9)   -179.83  0.000636   -0.26   -180.09   
    97. D(H  16,C  14,C   8,C   5)     61.19 -0.001174    0.80     61.99   
    98. D(H  15,C  14,C   8,C  10)     58.48  0.000886   -0.44     58.04   
    99. D(H  15,C  14,C   8,H   9)    -59.33  0.001265   -0.54    -59.87   
   100. D(H  15,C  14,C   8,C   5)   -178.31 -0.000545    0.52   -177.79   
   101. D(O  20,C  18,C   1,C   5)   -118.56 -0.004478    1.74   -116.82   
   102. D(O  20,C  18,C   1,N   2)    118.20  0.003982    0.26    118.46   
   103. D(O  20,C  18,C   1,H   0)      0.58 -0.001309    1.42      2.00   
   104. D(O  19,C  18,C   1,C   5)     61.56 -0.003937    0.80     62.36   
   105. D(O  19,C  18,C   1,N   2)    -61.68  0.004523   -0.67    -62.36   
   106. D(O  19,C  18,C   1,H   0)   -179.30 -0.000768    0.49   -178.81   
   107. D(H  21,O  20,C  18,O  19)     -0.08 -0.000280    0.49      0.40   
   108. D(H  21,O  20,C  18,C   1)   -179.97  0.000245   -0.44   -180.41   
    ----------------------------------------------------------------------------

         *************************************************************
         *                GEOMETRY OPTIMIZATION CYCLE   2            *
         *************************************************************
---------------------------------
CARTESIAN COORDINATES (ANGSTROEM)
---------------------------------
  H     -1.544189   -0.637185    0.017307
  C     -1.208293    0.355835   -0.321800
  N      0.217550    0.463591   -0.073302
  H      0.418699    0.288771    0.903467
  H      0.538973    1.397822   -0.308467
  C     -2.064467    1.446634    0.348048
  H     -1.724640    2.420987   -0.040822
  H     -3.120060    1.322850    0.040983
  C     -2.008601    1.470429    1.880880
  H     -0.959016    1.607555    2.196918
  C     -2.538122    0.175376    2.502898
  H     -2.498246    0.231915    3.602403
  H     -1.941051   -0.699220    2.200851
  H     -3.584701    0.002729    2.204374
  C     -2.798787    2.671812    2.404586
  H     -2.737453    2.728274    3.503070
  H     -3.860617    2.596904    2.120133
  H     -2.397609    3.612927    1.995976
  C     -1.408639    0.426924   -1.812274
  O     -1.100258    1.407627   -2.451012
  O     -1.959585   -0.648220   -2.371424
  H     -2.093266   -0.599807   -3.323983

----------------------------
CARTESIAN COORDINATES (A.U.)
----------------------------
  NO LB      ZA    FRAG     MASS         X           Y           Z
   0 H     1.0000    0     1.008   -2.918094   -1.204105    0.032706
   1 C     6.0000    0    12.011   -2.283343    0.672430   -0.608114
   2 N     7.0000    0    14.007    0.411110    0.876061   -0.138520
   3 H     1.0000    0     1.008    0.791226    0.545699    1.707305
   4 H     1.0000    0     1.008    1.018511    2.641502   -0.582919
   5 C     6.0000    0    12.011   -3.901278    2.733742    0.657716
   6 H     1.0000    0     1.008   -3.259096    4.575002   -0.077142
   7 H     1.0000    0     1.008   -5.896059    2.499824    0.077447
   8 C     6.0000    0    12.011   -3.795705    2.778709    3.554347
   9 H     1.0000    0     1.008   -1.812278    3.037839    4.151574
  10 C     6.0000    0    12.011   -4.796356    0.331413    4.729791
  11 H     1.0000    0     1.008   -4.721001    0.438256    6.807555
  12 H     1.0000    0     1.008   -3.668054   -1.321334    4.159006
  13 H     1.0000    0     1.008   -6.774103    0.005157    4.165664
  14 C     6.0000    0    12.011   -5.288942    5.048993    4.544010
  15 H     1.0000    0     1.008   -5.173037    5.155690    6.619842
  16 H     1.0000    0     1.008   -7.295509    4.907438    4.006472
  17 H     1.0000    0     1.008   -4.530825    6.827443    3.771847
  18 C     6.0000    0    12.011   -2.661942    0.806769   -3.424701
  19 O     8.0000    0    15.999   -2.079186    2.660029   -4.631742
  20 O     8.0000    0    15.999   -3.703079   -1.224959   -4.481343
  21 H     1.0000    0     1.008   -3.955699   -1.133472   -6.281418

--------------------------------
INTERNAL COORDINATES (ANGSTROEM)
--------------------------------
 H      0   0   0     0.000000000000     0.00000000     0.00000000
 C      1   0   0     1.101775129825     0.00000000     0.00000000
 N      2   1   0     1.451340969441   108.28420875     0.00000000
 H      3   2   1     1.012472311771   110.33710483   304.24533847
 H      3   2   1     1.015580321966   109.85148400   184.51519578
 C      2   1   3     1.539991552089   109.57420181   234.12804632
 H      6   2   1     1.102754151503   107.52544939   181.96661916
 H      6   2   1     1.106294533161   109.29888070   297.96749763
 C      6   2   1     1.534033615817   115.17396155    60.10784585
 H      9   6   2     1.104676838973   108.80780971    58.07693950
 C      9   6   2     1.531163860436   112.34645406   297.91288067
 H     11   9   6     1.101679839678   110.45750143   180.86375188
 H     11   9   6     1.101201532379   111.88921768    61.58468361
 H     11   9   6     1.101930555788   110.54365550   300.62049671
 C      9   6   2     1.530354355155   109.59184355   174.96696481
 H     15   9   6     1.101642149438   110.65369706   182.20806223
 H     15   9   6     1.101819858964   110.84758407    61.99160137
 H     15   9   6     1.101637235340   110.83521362   301.75332883
 C      2   1   3     1.505557884740   107.85967422   115.77229643
 O     19   2   1     1.210315773167   121.79030558   181.18916843
 O     19   2   1     1.331211921613   115.64296073     2.00387327
 H     21  19   2     0.963111152137   115.61211046   179.58465633

---------------------------
INTERNAL COORDINATES (A.U.)
---------------------------
 H      0   0   0     0.000000000000     0.00000000     0.00000000
 C      1   0   0     2.082053256535     0.00000000     0.00000000
 N      2   1   0     2.742636959183   108.28420875     0.00000000
 H      3   2   1     1.913295387425   110.33710483   304.24533847
 H      3   2   1     1.919168675515   109.85148400   184.51519578
 C      2   1   3     2.910162282000   109.57420181   234.12804632
 H      6   2   1     2.083903339386   107.52544939   181.96661916
 H      6   2   1     2.090593691128   109.29888070   297.96749763
[...]
     49      -0.016757   0.069512  -0.025711   0.001012   0.005531  -0.070936
     50      -0.038144   0.160791  -0.063161   0.002058   0.012109  -0.177850
     51       0.037697  -0.171345   0.068817   0.000496   0.014341  -0.108144
     52       0.088972  -0.414531   0.172205   0.000649   0.033076  -0.294963
     53      -0.043101   0.194986  -0.079342  -0.000896  -0.017713   0.146221
     54      -0.000708  -0.000172   0.000150  -0.001201   0.001037   0.000026
     55       0.000248   0.000055  -0.000167  -0.001386   0.000691   0.000023
     56      -0.000886  -0.000303   0.000217  -0.000529  -0.000059  -0.000041
     57       0.000027  -0.000001   0.000017   0.000600  -0.000394  -0.000017
     58      -0.000207  -0.000056   0.000062   0.000244  -0.000297  -0.000015
     59       0.000283   0.000094  -0.000115  -0.000481   0.000311   0.000024
     60       0.000284   0.000069  -0.000083   0.000138  -0.000335  -0.000014
     61      -0.000041   0.000003  -0.000005   0.000241  -0.000034   0.000010
     62       0.000105   0.000039  -0.000029   0.000151   0.000007   0.000005
     63       0.000410   0.000040  -0.000021   0.000498  -0.000413   0.000026
     64       0.000546   0.000100   0.000135   0.001890  -0.000317  -0.000018
     65      -0.000503   0.000068  -0.000119  -0.000715   0.001016   0.000028
                 60         61         62         63         64         65    
      0      -0.002118  -0.003591  -0.010054   0.002474   0.002814  -0.000891
      1      -0.004731  -0.012702  -0.031642   0.011935   0.005768  -0.001073
      2       0.001943   0.003573   0.010015  -0.003537  -0.000581  -0.000848
      3      -0.000106   0.000167   0.000872   0.001131  -0.000945   0.000099
      4       0.000403   0.001039   0.002534  -0.002758  -0.000771   0.000046
      5      -0.000071  -0.000247  -0.000633  -0.000202   0.000546  -0.000741
      6       0.000106   0.000043  -0.000017  -0.031536  -0.005681  -0.000015
      7      -0.000018  -0.000085  -0.000129  -0.047383  -0.020554   0.000072
      8      -0.000029  -0.000003   0.000009  -0.008312   0.077982   0.000170
      9       0.000830   0.000149   0.000625   0.094941  -0.129942  -0.000039
     10       0.000352   0.000502   0.000644   0.085598  -0.150769   0.000019
     11       0.000774   0.000302   0.000262   0.566879  -0.789746  -0.002593
     12       0.000252  -0.000060   0.000042   0.319102   0.222143   0.000246
     13       0.000262   0.000511   0.000632   0.593881   0.437235  -0.000154
     14      -0.000021  -0.000059  -0.000337  -0.451994  -0.299295   0.000812
     15      -0.003021   0.001328   0.000146   0.000441  -0.000014   0.000011
     16      -0.002411   0.001460   0.000571   0.000031   0.000159   0.000006
     17       0.000244  -0.000117  -0.000425   0.000026   0.000068  -0.000042
     18       0.007719  -0.005741  -0.001201  -0.001186  -0.000465   0.000020
     19       0.023894  -0.016651  -0.004198   0.000797  -0.000263  -0.000080
     20      -0.010999   0.009505   0.001116   0.000478   0.000362   0.000118
     21       0.032250  -0.009819  -0.000605   0.001555   0.001011  -0.000970
     22       0.006152  -0.001417   0.000096  -0.000168  -0.000274   0.000133
     23       0.014621  -0.002882   0.000148  -0.000669   0.000463   0.000136
     24      -0.010487  -0.000090  -0.001657   0.000130  -0.000315  -0.000014
     25      -0.002087   0.000621   0.000131   0.000033  -0.000062  -0.000018
     26      -0.003281  -0.001235   0.000587   0.000093  -0.000096   0.000034
     27       0.108546   0.003536   0.013404   0.000387   0.000057  -0.000113
     28       0.019394  -0.000060   0.001850  -0.000416   0.000893  -0.000024
     29       0.031996   0.002457   0.002366   0.000294   0.000751  -0.000198
     30      -0.060980  -0.009350  -0.047803   0.000051  -0.000008  -0.000005
     31       0.003067   0.003733   0.052620  -0.000045   0.000015   0.000005
     32      -0.051788  -0.001126   0.059538   0.000026  -0.000002  -0.000000
     33       0.001226  -0.000998  -0.021992   0.000067  -0.000152   0.000020
     34       0.044047  -0.000040  -0.038356  -0.000003   0.000089  -0.000009
     35       0.524897   0.018845  -0.560489  -0.000451   0.000330  -0.000237
     36       0.139393   0.045624   0.460767  -0.000490   0.000218   0.000074
     37      -0.202930  -0.062805  -0.626410   0.000493  -0.000259  -0.000102
     38      -0.077124  -0.021140  -0.205934   0.000281  -0.000321   0.000067
     39       0.592797   0.065291   0.133232  -0.000219   0.000331  -0.000006
     40       0.129168   0.014225   0.038489   0.000012   0.000061   0.000014
     41       0.167367   0.019157   0.051774  -0.000070  -0.000022   0.000059
     42      -0.036163   0.019300   0.000383  -0.000005   0.000028  -0.000008
     43      -0.023033   0.045848  -0.002194  -0.000008   0.000039   0.000010
     44      -0.014132  -0.078343   0.005906   0.000034  -0.000008  -0.000008
     45      -0.000710   0.027998  -0.001763  -0.000042   0.000015   0.000045
     46       0.011289   0.060148  -0.006681  -0.000015  -0.000037  -0.000056
     47       0.176423   0.679762  -0.057474  -0.000365   0.000042  -0.000201
     48       0.352920  -0.014044  -0.011628  -0.000084   0.000273   0.000056
     49       0.035834   0.005691  -0.002590  -0.000067  -0.000030   0.000019
     50       0.099687  -0.018501  -0.002074  -0.000059   0.000047   0.000056
     51       0.084809  -0.244323   0.012328   0.000013  -0.000078  -0.000022
     52       0.224624  -0.613759   0.031172  -0.000015  -0.000055  -0.000022
     53      -0.106567   0.274698  -0.013999   0.000019   0.000032   0.000052
     54      -0.000106   0.000035   0.000023   0.000164  -0.000322   0.001215
     55      -0.000112   0.000011  -0.000012   0.000093   0.000201   0.000306
     56       0.000031   0.000028  -0.000187   0.000334  -0.000223   0.002678
     57       0.000050  -0.000009  -0.000052   0.000056   0.000112  -0.000700
     58       0.000041  -0.000024  -0.000029  -0.000075  -0.000049  -0.000498
     59      -0.000019   0.000007   0.000117   0.000113   0.000033   0.000153
     60       0.000053  -0.000012   0.000022  -0.000120  -0.000043   0.005382
     61       0.000013  -0.000016   0.000006  -0.000071  -0.000046  -0.007946
     62       0.000001  -0.000005   0.000024   0.000064  -0.000091   0.060532
     63      -0.000017  -0.000012  -0.000079  -0.000081   0.000390  -0.087979
     64       0.000076   0.000082  -0.000111   0.000354  -0.000232   0.130126
     65      -0.000143  -0.000056   0.000291  -0.001823   0.001808  -0.985672


-----------
IR SPECTRUM
-----------

 Mode    freq (cm**-1)   T**2         TX         TY         TZ
-------------------------------------------------------------------
   6:        35.70    0.814747  ( -0.294080   0.779418  -0.347523)
   7:        53.83    1.135431  (  0.513492  -0.923349   0.138503)
   8:       108.47    0.372954  ( -0.495871  -0.258725  -0.245207)
   9:       135.19    0.061818  (  0.154293   0.073294  -0.180664)
  10:       210.41   30.158541  ( -0.676315   1.965113  -5.083254)
  11:       227.36    3.961423  ( -0.766475   0.510265  -1.764531)
  12:       237.46    9.334292  (  0.772703  -1.055182   2.761125)
  13:       254.16    1.010745  (  0.056788   0.359848  -0.937033)
  14:       321.95    2.189771  ( -0.513915   1.073039  -0.879914)
  15:       337.70    0.987860  (  0.681730   0.031795  -0.722560)
  16:       389.20    2.753473  ( -1.259829   1.042633   0.281463)
  17:       423.03    1.317035  ( -0.221083   1.044122   0.421860)
  18:       442.30    2.863550  (  0.383083   1.302034   1.010695)
  19:       540.11   23.422476  ( -4.395965  -0.574612  -1.941079)
  20:       620.18   63.682235  ( -3.214450   6.860049   2.507841)
  21:       663.03   46.731677  ( -4.651427   1.350504  -4.824110)
  22:       761.54   36.449457  ( -1.351176   5.656470   1.621149)
  23:       811.53  187.615442  ( 10.834693  -7.020570  -4.575640)
  24:       844.10   28.135095  ( -4.829410   2.160894  -0.377404)
  25:       865.19   14.826098  ( -2.780363   2.623096   0.463732)
  26:       907.60    6.278942  (  2.277382   0.239027   1.017516)
  27:       924.01    2.696180  (  0.983448  -1.280462  -0.299041)
  28:       964.43    1.400934  ( -1.169258   0.123420   0.136154)
  29:       984.33    3.551858  ( -0.928736   0.818441   1.421078)
  30:      1013.51    4.507226  ( -1.290286   1.077528  -1.296658)
  31:      1127.95    7.228916  (  2.209304  -1.427242  -0.557558)
  32:      1140.54    2.208413  ( -1.148226   0.849813   0.409645)
  33:      1161.62   24.525965  ( -4.398381  -2.115519  -0.839517)
  34:      1188.73  150.017507  ( -8.248375  -4.991710  -7.554115)
  35:      1196.56   37.402624  (  5.136696   2.589644   2.076228)
  36:      1236.73   25.128916  ( -3.066176  -2.932512  -2.669805)
  37:      1260.38   22.333783  ( -2.500237  -1.921363  -3.520080)
  38:      1286.55    2.197792  (  0.949848  -0.313098  -1.094326)
  39:      1327.60    6.826151  ( -1.333970  -1.140297  -1.935561)
  40:      1351.07    6.484585  ( -1.713253  -1.095795  -1.532509)
  41:      1368.60   25.611318  (  2.642032   0.593463   4.275370)
  42:      1383.16   10.550600  ( -0.596108  -0.525099  -3.149528)
  43:      1393.46   12.076358  (  0.342192  -3.458209  -0.007472)
  44:      1401.64   10.037576  (  2.020708   1.935349  -1.486182)
  45:      1446.55    2.728653  (  0.451102   1.160883   1.085131)
  46:      1456.22    4.842853  ( -0.584038  -0.599000  -2.035424)
  47:      1463.62   35.228509  ( -2.524508  -3.385532  -4.170557)
  48:      1469.22   28.168966  ( -2.779228  -0.755488  -4.458037)
  49:      1476.05    6.535444  (  2.506245  -0.504163   0.000498)
  50:      1481.29   15.415317  ( -1.719381  -0.427794  -3.503718)
  51:      1609.51   52.669072  ( -5.991421  -3.840910  -1.421041)
  52:      1896.40  294.415175  ( 12.581642   7.057604  -9.290193)
  53:      3028.47   18.156092  (  4.060086   0.845539   0.978190)
  54:      3038.53   16.406429  ( -2.046708   2.188731  -2.725228)
  55:      3044.74   27.447784  ( -2.257811   4.694517   0.558196)
  56:      3049.20   14.596842  (  3.079599   1.105529  -1.972490)
  57:      3069.69   10.830028  ( -1.218525  -3.021311   0.465734)
  58:      3099.86   26.447011  (  3.990690   3.209287  -0.471042)
  59:      3135.58    6.716135  (  1.531678   1.999265   0.610767)
  60:      3139.19   33.987310  ( -4.769368  -1.028505  -3.191021)
  61:      3145.24   21.487491  (  0.709655   2.392512  -3.906375)
  62:      3149.44   22.586740  ( -2.281662   2.443369   3.377974)
  63:      3544.81    6.930343  (  0.929677   1.624948  -1.850834)
  64:      3645.45    9.116243  (  0.726926   0.875764  -2.796580)
  65:      3804.56   91.499707  ( -2.396780  -0.212593  -9.257967)

The first frequency considered to be a vibration is 6
The total number of vibrations considered is 60


--------------------------
THERMOCHEMISTRY AT 298.15K
--------------------------

Temperature         ... 298.15 K
Pressure            ... 1.00 atm
Total Mass          ... 131.17 AMU

Throughout the following assumptions are being made:
  (1) The electronic state is orbitally nondegenerate
  (2) There are no thermally accessible electronically excited states
  (3) Hindered rotations indicated by low frequency modes are not
      treated as such but are treated as vibrations and this may
      cause some error
  (4) All equations used are the standard statistical mechanics
      equations for an ideal gas
  (5) All vibrations are strictly harmonic

freq.      35.70  E(vib)   ...       0.54 
freq.      53.83  E(vib)   ...       0.52 
freq.     108.47  E(vib)   ...       0.45 
freq.     135.19  E(vib)   ...       0.42 
freq.     210.41  E(vib)   ...       0.34 
freq.     227.36  E(vib)   ...       0.33 
freq.     237.46  E(vib)   ...       0.32 
freq.     254.16  E(vib)   ...       0.30 
freq.     321.95  E(vib)   ...       0.25 
freq.     337.70  E(vib)   ...       0.24 
freq.     389.20  E(vib)   ...       0.20 
freq.     423.03  E(vib)   ...       0.18 
freq.     442.30  E(vib)   ...       0.17 
freq.     540.11  E(vib)   ...       0.12 
freq.     620.18  E(vib)   ...       0.09 
freq.     663.03  E(vib)   ...       0.08 
freq.     761.54  E(vib)   ...       0.06 
freq.     811.53  E(vib)   ...       0.05 
freq.     844.10  E(vib)   ...       0.04 
freq.     865.19  E(vib)   ...       0.04 
freq.     907.60  E(vib)   ...       0.03 
freq.     924.01  E(vib)   ...       0.03 
freq.     964.43  E(vib)   ...       0.03 
freq.     984.33  E(vib)   ...       0.02 
freq.    1013.51  E(vib)   ...       0.02 
freq.    1127.95  E(vib)   ...       0.01 
freq.    1140.54  E(vib)   ...       0.01 
freq.    1161.62  E(vib)   ...       0.01 
freq.    1188.73  E(vib)   ...       0.01 
freq.    1196.56  E(vib)   ...       0.01 
freq.    1236.73  E(vib)   ...       0.01 
freq.    1260.38  E(vib)   ...       0.01 
freq.    1286.55  E(vib)   ...       0.01 
freq.    1327.60  E(vib)   ...       0.01 
freq.    1351.07  E(vib)   ...       0.01 
freq.    1368.60  E(vib)   ...       0.01 
freq.    1383.16  E(vib)   ...       0.00 
freq.    1393.46  E(vib)   ...       0.00 
freq.    1401.64  E(vib)   ...       0.00 
freq.    1446.55  E(vib)   ...       0.00 
freq.    1456.22  E(vib)   ...       0.00 
freq.    1463.62  E(vib)   ...       0.00 
freq.    1469.22  E(vib)   ...       0.00 
freq.    1476.05  E(vib)   ...       0.00 
freq.    1481.29  E(vib)   ...       0.00 
freq.    1609.51  E(vib)   ...       0.00 
freq.    1896.40  E(vib)   ...       0.00 
freq.    3028.47  E(vib)   ...       0.00 
freq.    3038.53  E(vib)   ...       0.00 
freq.    3044.74  E(vib)   ...       0.00 
freq.    3049.20  E(vib)   ...       0.00 
freq.    3069.69  E(vib)   ...       0.00 
freq.    3099.86  E(vib)   ...       0.00 
freq.    3135.58  E(vib)   ...       0.00 
freq.    3139.19  E(vib)   ...       0.00 
freq.    3145.24  E(vib)   ...       0.00 
freq.    3149.44  E(vib)   ...       0.00 
freq.    3544.81  E(vib)   ...       0.00 
freq.    3645.45  E(vib)   ...       0.00 
freq.    3804.56  E(vib)   ...       0.00 

------------
INNER ENERGY
------------

The inner energy is: U= E(el) + E(ZPE) + E(vib) + E(rot) + E(trans)
    E(el)   - is the total energy from the electronic structure calculation
              = E(kin-el) + E(nuc-el) + E(el-el) + E(nuc-nuc)
    E(ZPE)  - the the zero temperature vibrational energy from the frequency calculation
    E(vib)  - the the finite temperature correction to E(ZPE) due to population
              of excited vibrational states
    E(rot)  - is the rotational thermal energy
    E(trans)- is the translational thermal energy

Summary of contributions to the inner energy U:
Electronic energy                ...   -440.86239055 Eh
Zero point energy                ...      0.19385970 Eh     121.65 kcal/mol
Thermal vibrational correction   ...      0.00798675 Eh       5.01 kcal/mol
Thermal rotational correction    ...      0.00141627 Eh       0.89 kcal/mol
Thermal translational correction ...      0.00141627 Eh       0.89 kcal/mol
-----------------------------------------------------------------------
Total thermal energy                   -440.65771156 Eh


Summary of corrections to the electronic energy:
(perhaps to be used in another calculation)
Total thermal correction                  0.01081929 Eh       6.79 kcal/mol
Non-thermal (ZPE) correction              0.19385970 Eh     121.65 kcal/mol
-----------------------------------------------------------------------
Total correction                          0.20467899 Eh     128.44 kcal/mol


--------
ENTHALPY
--------

The enthalpy is H = U + kB*T
                kB is Boltzmann's constant
Total free energy                 ...   -440.65771156 Eh 
Thermal Enthalpy correction       ...      0.00094421 Eh       0.59 kcal/mol
-----------------------------------------------------------------------
Total Enthalpy                    ...   -440.65676735 Eh


Vibrational entropy computed according to the QRRHO of S. Grimme
Chem.Eur.J. 2012 18 9955

check  

-------
ENTROPY
-------

The entropy contributions are T*S = T*(S(el)+S(vib)+S(rot)+S(trans)
     S(el)   - electronic entropy
     S(vib)  - vibrational entropy
     S(rot)  - rotational entropy
     S(trans)- translational entropy
The entropies will be listed as mutliplied by the temperature to get
units of energy

Electronic entropy                ...      0.00000000 Eh      0.00 kcal/mol
Vibrational entropy               ...      0.01391555 Eh      8.73 kcal/mol
Rotational entropy                ...      0.01299700 Eh      8.16 kcal/mol
Translational entropy             ...      0.01925556 Eh     12.08 kcal/mol
-----------------------------------------------------------------------
Final entropy term                ...      0.04616812 Eh     28.97 kcal/mol


CAUTION: The rotational entropy is not quite correctly treated here
         because it includes a symmetry number that is not yet correctly
         implemented in ORCA!
For a nonlinear molecule the correct rotational entropy is:
    S(rot) = R*(ln(qrot/sn)+1.5)
    R    = 8.31441 J/mol/K = 1.987191683e-3 kcal/mol/K
    qrot = 636657.1709291
    sn is the rotational symmetry number. We have assumed 3 here
       if it is different for your molecule then you should correct
       the printed rotational entropy by manually evaluating the equation
       as given above

For convenience we print out the resulting values for sn=1 - 12:
 sn= 1  qrot/sn=  636657.1709 T*S(rot)=     8.81 kcal/mol T*S(tot)=    29.62 kcal/mol
 sn= 2  qrot/sn=  318328.5855 T*S(rot)=     8.40 kcal/mol T*S(tot)=    29.21 kcal/mol
 sn= 3  qrot/sn=  212219.0570 T*S(rot)=     8.16 kcal/mol T*S(tot)=    28.97 kcal/mol
 sn= 4  qrot/sn=  159164.2927 T*S(rot)=     7.99 kcal/mol T*S(tot)=    28.80 kcal/mol
 sn= 5  qrot/sn=  127331.4342 T*S(rot)=     7.85 kcal/mol T*S(tot)=    28.67 kcal/mol
 sn= 6  qrot/sn=  106109.5285 T*S(rot)=     7.75 kcal/mol T*S(tot)=    28.56 kcal/mol
 sn= 7  qrot/sn=   90951.0244 T*S(rot)=     7.65 kcal/mol T*S(tot)=    28.47 kcal/mol
 sn= 8  qrot/sn=   79582.1464 T*S(rot)=     7.57 kcal/mol T*S(tot)=    28.39 kcal/mol
 sn= 9  qrot/sn=   70739.6857 T*S(rot)=     7.50 kcal/mol T*S(tot)=    28.32 kcal/mol
 sn=10  qrot/sn=   63665.7171 T*S(rot)=     7.44 kcal/mol T*S(tot)=    28.26 kcal/mol
 sn=11  qrot/sn=   57877.9246 T*S(rot)=     7.39 kcal/mol T*S(tot)=    28.20 kcal/mol
 sn=12  qrot/sn=   53054.7642 T*S(rot)=     7.33 kcal/mol T*S(tot)=    28.15 kcal/mol


-------------------
GIBBS FREE ENTHALPY
-------------------

The Gibbs free enthalpy is G = H - T*S

Total enthalpy                    ...   -440.65676735 Eh 
Total entropy correction          ...     -0.04616812 Eh    -28.97 kcal/mol
-----------------------------------------------------------------------
Final Gibbs free enthalpy         ...   -440.70293547 Eh

For completeness - the Gibbs free enthalpy minus the electronic energy
G-E(el)                           ...      0.15945508 Eh    100.06 kcal/mol


Timings for individual modules:

Sum of individual times         ...     7444.798 sec (= 124.080 min)
GTO integral calculation        ...        6.045 sec (=   0.101 min)   0.1 %
SCF iterations                  ...      655.317 sec (=  10.922 min)   8.8 %
SCF Gradient evaluation         ...      322.991 sec (=   5.383 min)   4.3 %
Geometry relaxation             ...        5.037 sec (=   0.084 min)   0.1 %
Analytical frequency calculation...     6455.408 sec (= 107.590 min)  86.7 %
                             ****ORCA TERMINATED NORMALLY****
TOTAL RUN TIME: 0 days 2 hours 4 minutes 8 seconds 278 msec
