
                                 *****************
                                 * O   R   C   A *
                                 *****************

           --- An Ab Initio, DFT and Semiempirical electronic structure package ---

                  #######################################################
                  #                        -***-                        #
                  #  Department of molecular theory and spectroscopy    #
                  #              Directorship: Frank Neese              #
                  # Max Planck Institute for Chemical Energy Conversion #
                  #                  D-45470 Muelheim/Ruhr              #
                  #                       Germany                       #
                  #                                                     #
                  #                  All rights reserved                #
                  #                        -***-                        #
                  #######################################################


                         Program Version 4.0.0 -  RELEASE  -


 With contributions from (in alphabetic order):
   Daniel Aravena         : Magnetic Properties
   Michael Atanasov       : Ab Initio Ligand Field Theory
   Ute Becker             : Parallelization
   Martin Brehm           : Molecular dynamics
   Dmytro Bykov           : SCF Hessian
   Vijay G. Chilkuri      : MRCI spin determinant printing
   Dipayan Datta          : RHF DLPNO-CCSD density
   Achintya Kumar Dutta   : EOM-CC, STEOM-CC
   Dmitry Ganyushin       : Spin-Orbit,Spin-Spin,Magnetic field MRCI
   Yang Guo               : DLPNO-NEVPT2, CIM, IAO-localization
   Andreas Hansen         : Spin unrestricted coupled pair/coupled cluster methods
   Lee Huntington         : MR-EOM, pCC
   Robert Izsak           : Overlap fitted RIJCOSX, COSX-SCS-MP3, EOM
   Christian Kollmar      : KDIIS, OOCD, Brueckner-CCSD(T), CCSD density
   Simone Kossmann        : Meta GGA functionals, TD-DFT gradient, OOMP2, MP2 Hessian
   Martin Krupicka        : AUTO-CI
   Dagmar Lenk            : GEPOL surface
   Dimitrios Liakos       : Extrapolation schemes; parallel MDCI
   Dimitrios Manganas     : ROCIS; embedding schemes
   Dimitrios Pantazis     : SARC Basis sets
   Taras Petrenko         : DFT Hessian,TD-DFT gradient, ASA, ECA, R-Raman, ABS, FL, XAS/XES, NRVS
   Peter Pinski           : DLPNO-MP2
   Christoph Reimann      : Effective Core Potentials
   Marius Retegan         : Local ZFS, SOC
   Christoph Riplinger    : Optimizer, TS searches, QM/MM, DLPNO-CCSD(T), (RO)-DLPNO pert. Triples
   Tobias Risthaus        : Range-separated hybrids, TD-DFT gradient, RPA, STAB
   Michael Roemelt        : Restricted open shell CIS
   Masaaki Saitow         : Open-shell DLPNO
   Barbara Sandhoefer     : DKH picture change effects
   Kantharuban Sivalingam : CASSCF convergence, NEVPT2, FIC-MRCI
   Georgi Stoychev        : AutoAux
   Boris Wezisla          : Elementary symmetry handling
   Frank Wennmohs         : Technical directorship


 We gratefully acknowledge several colleagues who have allowed us to
 interface, adapt or use parts of their codes:
   Stefan Grimme, W. Hujo, H. Kruse,             : VdW corrections, initial TS optimization,
                  C. Bannwarth                     DFT functionals, gCP, sTDA/sTD-DF
   Ed Valeev                                     : LibInt (2-el integral package), F12 methods
   Garnet Chan, S. Sharma, J. Yang, R. Olivares  : DMRG
   Ulf Ekstrom                                   : XCFun DFT Library
   Mihaly Kallay                                 : mrcc  (arbitrary order and MRCC methods)
   Jiri Pittner, Ondrej Demel                    : Mk-CCSD
   Frank Weinhold                                : gennbo (NPA and NBO analysis)
   Christopher J. Cramer and Donald G. Truhlar   : smd solvation model


 Your calculation uses the libint2 library for the computation of 2-el integrals
 For citations please refer to: http://libint.valeyev.net

 This ORCA versions uses:
   CBLAS   interface :  Fast vector & matrix operations
   LAPACKE interface :  Fast linear algebra routines




*****************************************
The coordinations will be read from file: glutamic.xyz
*****************************************


Your calculation utilizes the basis: def2-SVP
   F. Weigend and R. Ahlrichs, Phys. Chem. Chem. Phys. 7, 3297 (2005).

================================================================================
                                        WARNINGS
                       Please study these warnings very carefully!
================================================================================

Warning: TCutStore was < 0. Adjusted to Thresh (uncritical)

WARNING: Geometry Optimization
  ===> : Switching off AutoStart
         For restart on a previous wavefunction, please use MOREAD

INFO   : the flag for use of LIBINT has been found!

================================================================================
                                       INPUT FILE
================================================================================
NAME = glutamic.inp
|  1> ! PBE0
|  2> ! opt anfreq
|  3> * xyzfile 0 1 glutamic.xyz **                         ****END OF INPUT****
================================================================================

                       *****************************
                       * Geometry Optimization Run *
                       *****************************

Geometry optimization settings:
Update method            Update   .... BFGS
Choice of coordinates    CoordSys .... Redundant Internals
Initial Hessian          InHess   .... Almoef's Model

Convergence Tolerances:
Energy Change            TolE     .... 5.0000e-006 Eh
Max. Gradient            TolMAXG  .... 3.0000e-004 Eh/bohr
RMS Gradient             TolRMSG  .... 1.0000e-004 Eh/bohr
Max. Displacement        TolMAXD  .... 4.0000e-003 bohr
RMS Displacement         TolRMSD  .... 2.0000e-003 bohr

------------------------------------------------------------------------------
                        ORCA OPTIMIZATION COORDINATE SETUP
------------------------------------------------------------------------------

The optimization will be done in new redundant internal coordinates
Making redundant internal coordinates   ...  (new redundants) done
Evaluating the initial hessian          ...  (Almloef) done
Evaluating the coordinates              ...  done
Calculating the B-matrix                .... done
Calculating the G-matrix                .... done
Diagonalizing the G-matrix              .... done
Small eigenvalue found = 1.600e-002
The first mode is                       ....   36
The number of degrees of freedom        ....   51

    -----------------------------------------------------------------
                    Redundant Internal Coordinates


    -----------------------------------------------------------------
         Definition                    Initial Value    Approx d2E/dq
    -----------------------------------------------------------------
      1. B(C   1,C   0)                  1.5382         0.362468   
      2. B(C   2,C   1)                  1.5099         0.402225   
      3. B(O   3,C   2)                  1.2220         1.037211   
      4. B(O   4,C   2)                  1.3485         0.651730   
      5. B(C   5,C   0)                  1.5409         0.358942   
      6. B(C   6,C   5)                  1.5195         0.388289   
      7. B(O   7,C   6)                  1.2216         1.038768   
      8. B(O   8,C   6)                  1.3507         0.646610   
      9. B(N   9,C   5)                  1.4670         0.421728   
     10. B(H  10,C   0)                  1.1125         0.331593   
     11. B(H  11,C   0)                  1.1113         0.332984   
     12. B(H  12,C   1)                  1.1112         0.333156   
     13. B(H  13,C   1)                  1.1116         0.332571   
     14. B(H  14,O   4)                  0.9673         0.506185   
     15. B(H  15,C   5)                  1.1131         0.330861   
     16. B(H  16,O   8)                  0.9669         0.507005   
     17. B(H  17,N   9)                  1.0463         0.378738   
     18. B(H  18,N   9)                  1.0451         0.380327   
     19. A(C   1,C   0,H  11)          108.1259         0.318612   
     20. A(C   5,C   0,H  11)          109.3838         0.318104   
     21. A(C   5,C   0,H  10)          109.0766         0.317888   
     22. A(C   1,C   0,H  10)          109.3128         0.318394   
     23. A(C   1,C   0,C   5)          112.3085         0.359031   
     24. A(H  10,C   0,H  11)          108.5611         0.283627   
     25. A(C   0,C   1,C   2)          112.6905         0.366079   
     26. A(C   0,C   1,H  13)          109.2580         0.318547   
     27. A(C   2,C   1,H  12)          107.9897         0.324112   
     28. A(C   2,C   1,H  13)          108.5597         0.324019   
     29. A(H  12,C   1,H  13)          108.6696         0.283780   
     30. A(C   0,C   1,H  12)          109.5883         0.318639   
     31. A(C   1,C   2,O   3)          121.0430         0.437627   
     32. A(O   3,C   2,O   4)          119.0379         0.474667   
     33. A(C   1,C   2,O   4)          119.9187         0.402824   
     34. A(C   2,O   4,H  14)          121.4920         0.371588   
     35. A(C   0,C   5,C   6)          110.2440         0.363269   
     36. A(N   9,C   5,H  15)          108.4307         0.324322   
     37. A(C   6,C   5,H  15)          108.0008         0.321879   
     38. A(C   0,C   5,H  15)          108.8903         0.317773   
     39. A(C   6,C   5,N   9)          111.2452         0.371120   
     40. A(C   0,C   5,N   9)          109.9595         0.366146   
     41. A(C   5,C   6,O   7)          120.5663         0.434973   
     42. A(O   7,C   6,O   8)          118.7625         0.474110   
     43. A(C   5,C   6,O   8)          120.6698         0.399774   
     44. A(C   6,O   8,H  16)          122.1739         0.371187   
     45. A(H  17,N   9,H  18)          109.4309         0.290910   
     46. A(C   5,N   9,H  18)          110.1424         0.329031   
     47. A(C   5,N   9,H  17)          110.6191         0.328804   
     48. D(H  13,C   1,C   0,H  11)     61.5208         0.010531   
     49. D(H  12,C   1,C   0,H  10)    -61.5063         0.010531   
     50. D(H  12,C   1,C   0,C   5)     59.7003         0.010531   
     51. D(H  13,C   1,C   0,C   5)    -59.2624         0.010531   
     52. D(H  13,C   1,C   0,H  10)    179.5310         0.010531   
     53. D(H  12,C   1,C   0,H  11)   -179.5165         0.010531   
     54. D(C   2,C   1,C   0,C   5)    179.9724         0.010531   
     55. D(C   2,C   1,C   0,H  10)     58.7658         0.010531   
     56. D(C   2,C   1,C   0,H  11)    -59.2444         0.010531   
     57. D(O   4,C   2,C   1,H  12)    -58.4534         0.012001   
     58. D(O   3,C   2,C   1,H  13)   -121.0136         0.012001   
     59. D(O   3,C   2,C   1,H  12)    121.3373         0.012001   
     60. D(O   3,C   2,C   1,C   0)      0.1503         0.012001   
     61. D(O   4,C   2,C   1,H  13)     59.1957         0.012001   
     62. D(O   4,C   2,C   1,C   0)   -179.6404         0.012001   
     63. D(H  14,O   4,C   2,O   3)   -179.6690         0.031405   
     64. D(H  14,O   4,C   2,C   1)      0.1259         0.031405   
     65. D(H  15,C   5,C   0,H  11)    -60.2155         0.010341   
     66. D(H  15,C   5,C   0,H  10)   -178.8178         0.010341   
     67. D(H  15,C   5,C   0,C   1)     59.8402         0.010341   
     68. D(N   9,C   5,C   0,H  11)   -178.8867         0.010341   
     69. D(N   9,C   5,C   0,H  10)     62.5111         0.010341   
     70. D(N   9,C   5,C   0,C   1)    -58.8310         0.010341   
     71. D(C   6,C   5,C   0,H  11)     58.0999         0.010341   
     72. D(C   6,C   5,C   0,H  10)    -60.5024         0.010341   
     73. D(C   6,C   5,C   0,C   1)    178.1556         0.010341   
     74. D(O   8,C   6,C   5,C   0)    -60.1024         0.011222   
     75. D(O   7,C   6,C   5,H  15)   -120.8154         0.011222   
     76. D(O   7,C   6,C   5,N   9)     -1.9340         0.011222   
     77. D(O   8,C   6,C   5,N   9)    177.6389         0.011222   
     78. D(O   7,C   6,C   5,C   0)    120.3248         0.011222   
     79. D(O   8,C   6,C   5,H  15)     58.7575         0.011222   
     80. D(H  16,O   8,C   6,O   7)    179.0210         0.030874   
     81. D(H  16,O   8,C   6,C   5)     -0.5595         0.030874   
     82. D(H  18,N   9,C   5,H  15)     58.6122         0.015165   
     83. D(H  18,N   9,C   5,C   6)    -60.0114         0.015165   
     84. D(H  18,N   9,C   5,C   0)    177.5655         0.015165   
     85. D(H  17,N   9,C   5,H  15)    179.7166         0.015165   
     86. D(H  17,N   9,C   5,C   6)     61.0931         0.015165   
     87. D(H  17,N   9,C   5,C   0)    -61.3301         0.015165   
    -----------------------------------------------------------------

Number of atoms                         .... 19
Number of degrees of freedom            .... 87

         *************************************************************
         *                GEOMETRY OPTIMIZATION CYCLE   1            *
         *************************************************************
---------------------------------
CARTESIAN COORDINATES (ANGSTROEM)
---------------------------------
  C      1.047460    0.054130    0.077080
  C      0.485400   -0.714560    1.285100
  C     -1.024090   -0.740490    1.307920
  O     -1.677070   -0.194040    0.431360
  O     -1.670900   -1.370520    2.309510
  C      2.588120    0.075680    0.062840
  C      3.092350    0.805740   -1.170690
  O      3.792790    1.800560   -1.060840
  O      2.782160    0.362730   -2.408350
  N      3.091610    0.698370    1.292000
  H      0.669390    1.100150    0.098300
  H      0.676890   -0.437250   -0.848250
  H      0.834690   -0.237180    2.225740
  H      0.856910   -1.761950    1.258340
  H     -1.189540   -1.810480    3.023940
  H      2.962780   -0.971540    0.019900
  H      2.243300   -0.427010   -2.552470
  H      2.762570    1.688880    1.364730
  H      4.136450    0.677310    1.304210

----------------------------
CARTESIAN COORDINATES (A.U.)
----------------------------
  NO LB      ZA    FRAG     MASS         X           Y           Z
   0 C     6.0000    0    12.011    1.979413    0.102291    0.145660
   1 C     6.0000    0    12.011    0.917273   -1.350323    2.428487
   2 C     6.0000    0    12.011   -1.935250   -1.399323    2.471611
   3 O     8.0000    0    15.999   -3.169203   -0.366682    0.815152
   4 O     8.0000    0    15.999   -3.157543   -2.589907    4.364341
   5 C     6.0000    0    12.011    4.890838    0.143014    0.118750
   6 C     6.0000    0    12.011    5.843695    1.522628   -2.212283
   7 O     8.0000    0    15.999    7.167334    3.402565   -2.004697
   8 O     8.0000    0    15.999    5.257520    0.685460   -4.551122
   9 N     7.0000    0    14.007    5.842296    1.319728    2.441526
  10 H     1.0000    0     1.008    1.264964    2.078982    0.185760
  11 H     1.0000    0     1.008    1.279137   -0.826283   -1.602960
  12 H     1.0000    0     1.008    1.577336   -0.448205    4.206039
  13 H     1.0000    0     1.008    1.619325   -3.329603    2.377918
  14 H     1.0000    0     1.008   -2.247905   -3.421311    5.714418
  15 H     1.0000    0     1.008    5.598843   -1.835945    0.037606
  16 H     1.0000    0     1.008    4.239223   -0.806932   -4.823469
  17 H     1.0000    0     1.008    5.220501    3.191521    2.578966
  18 H     1.0000    0     1.008    7.816758    1.279930    2.464600

--------------------------------
INTERNAL COORDINATES (ANGSTROEM)
--------------------------------
 C      0   0   0     0.000000000000     0.00000000     0.00000000
 C      1   0   0     1.538215875649     0.00000000     0.00000000
 C      2   1   0     1.509885153712   112.69050733     0.00000000
 O      3   2   1     1.222026152134   121.04303366     0.15028039
 O      3   2   1     1.348511588790   119.91871479   180.35956489
 C      1   2   3     1.540876508907   112.30845447   179.97242223
 C      6   1   2     1.519484043154   110.24396144   178.15556024
 O      7   6   1     1.221617799682   120.56631719   120.32479772
 O      7   6   1     1.350658347548   120.66982824   299.89762932
 N      6   1   2     1.466996701360   109.95953184   301.16904231
 H      1   2   3     1.112450023012   109.31279159    58.76575970
 H      1   2   3     1.111310954774   108.12589005   300.75561740
 H      2   1   3     1.111170004140   109.58834516   239.72789946
 H      2   1   3     1.111648141185   109.25797109   120.76522360
 H      5   3   2     0.967306815907   121.49204518     0.12594401
 H      6   1   2     1.113051520640   108.89028636    59.84018326
 H      9   7   6     0.966866041187   122.17392878   359.44054369
 H     10   6   1     1.046263367704   110.61913254   298.66990628
 H     10   6   1     1.045123549299   110.14235102   177.56548921

---------------------------
INTERNAL COORDINATES (A.U.)
---------------------------
 C      0   0   0     0.000000000000     0.00000000     0.00000000
 C      1   0   0     2.906806739827     0.00000000     0.00000000
 C      2   1   0     2.853269434189   112.69050733     0.00000000
 O      3   2   1     2.309294756023   121.04303366     0.15028039
 O      3   2   1     2.548317591231   119.91871479   180.35956489
 C      1   2   3     2.911834608026   112.30845447   179.97242223
 C      6   1   2     2.871408706425   110.24396144   178.15556024
 O      7   6   1     2.308523081723   120.56631719   120.32479772
 O      7   6   1     2.552374377360   120.66982824   299.89762932
 N      6   1   2     2.772222004936   109.95953184   301.16904231
 H      1   2   3     2.102225881168   109.31279159    58.76575970
 H      1   2   3     2.100073354149   108.12589005   300.75561740
 H      2   1   3     2.099806996052   109.58834516   239.72789946
 H      2   1   3     2.100710544122   109.25797109   120.76522360
 H      5   3   2     1.827944969539   121.49204518     0.12594401
 H      6   1   2     2.103362546955   108.89028636    59.84018326
 H      9   7   6     1.827112026031   122.17392878   359.44054369
 H     10   6   1     1.977151228915   110.61913254   298.66990628
 H     10   6   1     1.974997284287   110.14235102   177.56548921

---------------------
BASIS SET INFORMATION
---------------------
There are 4 groups of distinct atoms

 Group   1 Type C   : 7s4p1d contracted to 3s2p1d pattern {511/31/1}
 Group   2 Type O   : 7s4p1d contracted to 3s2p1d pattern {511/31/1}
 Group   3 Type N   : 7s4p1d contracted to 3s2p1d pattern {511/31/1}
 Group   4 Type H   : 4s1p contracted to 2s1p pattern {31/1}

Atom   0C    basis set group =>   1
Atom   1C    basis set group =>   1
Atom   2C    basis set group =>   1
Atom   3O    basis set group =>   2
Atom   4O    basis set group =>   2
Atom   5C    basis set group =>   1
Atom   6C    basis set group =>   1
Atom   7O    basis set group =>   2
Atom   8O    basis set group =>   2
Atom   9N    basis set group =>   3
Atom  10H    basis set group =>   4
Atom  11H    basis set group =>   4
Atom  12H    basis set group =>   4
Atom  13H    basis set group =>   4
Atom  14H    basis set group =>   4
Atom  15H    basis set group =>   4
Atom  16H    basis set group =>   4
Atom  17H    basis set group =>   4
Atom  18H    basis set group =>   4
-------------------------
ECP PARAMETER INFORMATION
-------------------------



------------------------------------------------------------------------------
                           ORCA GTO INTEGRAL CALCULATION
------------------------------------------------------------------------------

                         BASIS SET STATISTICS AND STARTUP INFO

 # of primitive gaussian shells          ...  165
 # of primitive gaussian functions       ...  303
 # of contracted shells                  ...   87
 # of contracted basis functions         ...  185
 Highest angular momentum                ...    2
 Maximum contraction depth               ...    5
 Integral package used                   ... LIBINT
 Integral threshhold            Thresh   ... 2.500e-011
 Primitive cut-off              TCut     ... 2.500e-012


------------------------------ INTEGRAL EVALUATION ----------------------------


 * One electron integrals 

   ECP integrals                          Pre-screening matrix                    ... done
 Shell pair data                         ... done (   0.001 sec)

Timings:
 Total evaluation time               ...     0.003 sec (   0.000 min)
 One electron matrix time            ...     0.021 sec (   0.000 min) =700.0%
 Schwartz matrix evaluation time     ...     0.090 sec (   0.002 min) =3000.0%

-------------------------------------------------------------------------------
                                 ORCA SCF
-------------------------------------------------------------------------------

------------
SCF SETTINGS
------------
Hamiltonian:
 Density Functional     Method          .... DFT(GTOs)
 Exchange Functional    Exchange        .... PBE
   PBE kappa parameter   XKappa         ....  0.804000
   PBE mue parameter    XMuePBE         ....  0.219520
 Correlation Functional Correlation     .... PBE
   PBE beta parameter  CBetaPBE         ....  0.066725
 LDA part of GGA corr.  LDAOpt          .... PW91-LDA
 Gradients option       PostSCFGGA      .... off
 Hybrid DFT is turned on
   Fraction HF Exchange ScalHFX         ....  0.250000
   Scaling of DF-GGA-X  ScalDFX         ....  0.750000
   Scaling of DF-GGA-C  ScalDFC         ....  1.000000
   Scaling of DF-LDA-C  ScalLDAC        ....  1.000000
   Perturbative correction              ....  0.000000
   NL short-range parameter             ....  6.900000


General Settings:
 Integral files         IntName         .... glutamic
 Hartree-Fock type      HFTyp           .... RHF
 Total Charge           Charge          ....    0
 Multiplicity           Mult            ....    1
 Number of Electrons    NEL             ....   78
 Basis Dimension        Dim             ....  185
 Nuclear Repulsion      ENuc            ....    535.1403278327 Eh

Convergence Acceleration:
 DIIS                   CNVDIIS         .... on
   Start iteration      DIISMaxIt       ....    12
   Startup error        DIISStart       ....  0.200000
   # of expansion vecs  DIISMaxEq       ....     5
   Bias factor          DIISBfac        ....   1.050
   Max. coefficient     DIISMaxC        ....  10.000
 Newton-Raphson         CNVNR           .... off
 SOSCF                  CNVSOSCF        .... on
   Start iteration      SOSCFMaxIt      ....   150
   Startup grad/error   SOSCFStart      ....  0.003300
 Level Shifting         CNVShift        .... on
   Level shift para.    LevelShift      ....    0.2500
   Turn off err/grad.   ShiftErr        ....    0.0010
 Zerner damping         CNVZerner       .... off
 Static damping         CNVDamp         .... on
   Fraction old density DampFac         ....    0.7000
   Max. Damping (<1)    DampMax         ....    0.9800
   Min. Damping (>=0)   DampMin         ....    0.0000
   Turn off err/grad.   DampErr         ....    0.1000
 Fernandez-Rico         CNVRico         .... off

SCF Procedure:
 Maximum # iterations   MaxIter         ....   125
 SCF integral mode      SCFMode         .... Direct
   Integral package                     .... LIBINT
 Reset frequeny         DirectResetFreq ....    20
 Integral Threshold     Thresh          .... 2.500e-011 Eh
 Primitive CutOff       TCut            .... 2.500e-012 Eh

Convergence Tolerance:
 Convergence Check Mode ConvCheckMode   .... Total+1el-Energy
 Convergence forced     ConvForced      .... 0
 Energy Change          TolE            .... 1.000e-008 Eh
 1-El. energy change                    .... 1.000e-005 Eh
 Orbital Gradient       TolG            .... 1.000e-005
 Orbital Rotation angle TolX            .... 1.000e-005
 DIIS Error             TolErr          .... 5.000e-007


Diagonalization of the overlap matrix:
Smallest eigenvalue                        ... 9.285e-004
Time for diagonalization                   ...    0.007 sec
Threshold for overlap eigenvalues          ... 1.000e-008
Number of eigenvalues below threshold      ... 0
Time for construction of square roots      ...    0.003 sec
Total time needed                          ...    0.010 sec

-------------------
DFT GRID GENERATION
-------------------

General Integration Accuracy     IntAcc      ...  4.340
Radial Grid Type                 RadialGrid  ... Gauss-Chebyshev
Angular Grid (max. acc.)         AngularGrid ... Lebedev-110
Angular grid pruning method      GridPruning ... 3 (G Style)
Weight generation scheme         WeightScheme... Becke
Basis function cutoff            BFCut       ...   1.0000e-011
Integration weight cutoff        WCut        ...   1.0000e-014
Grids for H and He will be reduced by one unit

# of grid points (after initial pruning)     ...  23992 (   0.0 sec)
# of grid points (after weights+screening)   ...  22176 (   0.0 sec)
nearest neighbour list constructed           ...    0.0 sec
Grid point re-assignment to atoms done       ...    0.0 sec
Grid point division into batches done        ...    0.0 sec
Reduced shell lists constructed in    0.1 sec

Total number of grid points                  ...    22176
Total number of batches                      ...      356
Average number of points per batch           ...       62
Average number of grid points per atom       ...     1167
Average number of shells per batch           ...    56.89 (65.39%)
Average number of basis functions per batch  ...   116.91 (63.19%)
Average number of large shells per batch     ...    42.87 (75.35%)
Average number of large basis fcns per batch ...    86.18 (73.72%)
Maximum spatial batch extension              ...  19.63, 22.24, 19.32 au
Average spatial batch extension              ...   3.79,  3.67,  3.63 au

Time for grid setup =    0.199 sec

------------------------------
INITIAL GUESS: MODEL POTENTIAL
------------------------------
Loading Hartree-Fock densities                     ... done
Calculating cut-offs                               ... done
Setting up the integral package                    ... done
Initializing the effective Hamiltonian             ... done
Starting the Coulomb interaction                   ... done (   0.1 sec)
Reading the grid                                   ... done
Mapping shells                                     ... done
Starting the XC term evaluation                    ... done (   0.2 sec)
  promolecular density results
     # of electrons  =     77.992393944
     EX              =    -67.348054963
     EC              =     -2.613943475
     EX+EC           =    -69.961998437
Transforming the Hamiltonian                       ... done (   0.0 sec)
Diagonalizing the Hamiltonian                      ... done (   0.0 sec)
Back transforming the eigenvectors                 ... done (   0.0 sec)
Now organizing SCF variables                       ... done
                      ------------------
                      INITIAL GUESS DONE (   0.5 sec)
                      ------------------
--------------
SCF ITERATIONS
--------------
ITER       Energy         Delta-E        Max-DP      RMS-DP      [F,P]     Damp
               ***  Starting incremental Fock matrix formation  ***
  0   -550.2292687937   0.000000000000 0.12808909  0.00317292  0.2550268 0.7000
  1   -550.4091534359  -0.179884642200 0.08141570  0.00195105  0.1007698 0.7000
                               ***Turning on DIIS***
  2   -550.4704330974  -0.061279661473 0.07345091  0.00249163  0.0366677 0.0000
  3   -550.5778567215  -0.107423624115 0.07304667  0.00144704  0.0560711 0.0000
  4   -550.5976230494  -0.019766327886 0.01130817  0.00036941  0.0143038 0.0000
  5   -550.5990366554  -0.001413606020 0.00450283  0.00010743  0.0036813 0.0000
                      *** Initiating the SOSCF procedure ***
                           *** Shutting down DIIS ***
                      *** Re-Reading the Fockian *** 
                      *** Removing any level shift *** 
ITER      Energy       Delta-E        Grad      Rot      Max-DP    RMS-DP
  6   -550.59908212  -0.0000454629  0.000260  0.000260  0.000901  0.000035
               *** Restarting incremental Fock matrix formation ***
  7   -550.59909096  -0.0000088454  0.000127  0.000389  0.000765  0.000023
  8   -550.59909150  -0.0000005324  0.000100  0.000122  0.000298  0.000010
  9   -550.59909209  -0.0000005910  0.000026  0.000070  0.000197  0.000005
 10   -550.59909210  -0.0000000150  0.000034  0.000050  0.000072  0.000002
 11   -550.59909212  -0.0000000199  0.000018  0.000029  0.000039  0.000001
 12   -550.59909212  -0.0000000018  0.000011  0.000010  0.000021  0.000001
                  ***Gradient check signals convergence***
              ***Rediagonalizing the Fockian in SOSCF/NRSCF***

               *****************************************************
               *                     SUCCESS                       *
               *           SCF CONVERGED AFTER  13 CYCLES          *
               *****************************************************

Setting up the final grid:

General Integration Accuracy     IntAcc      ...  4.670
Radial Grid Type                 RadialGrid  ... Gauss-Chebyshev
Angular Grid (max. acc.)         AngularGrid ... Lebedev-302
Angular grid pruning method      GridPruning ... 3 (G Style)
Weight generation scheme         WeightScheme... Becke
Basis function cutoff            BFCut       ...   1.0000e-011
Integration weight cutoff        WCut        ...   1.0000e-014
Grids for H and He will be reduced by one unit

# of grid points (after initial pruning)     ...  92666 (   0.0 sec)
# of grid points (after weights+screening)   ...  84287 (   0.2 sec)
nearest neighbour list constructed           ...    0.0 sec
Grid point re-assignment to atoms done       ...    0.0 sec
Grid point division into batches done        ...    0.2 sec
Reduced shell lists constructed in    0.6 sec

Total number of grid points                  ...    84287
Total number of batches                      ...     1327
Average number of points per batch           ...       63
Average number of grid points per atom       ...     4436
Average number of shells per batch           ...    52.11 (59.90%)
Average number of basis functions per batch  ...   106.13 (57.37%)
Average number of large shells per batch     ...    38.44 (73.77%)
Average number of large basis fcns per batch ...    76.38 (71.97%)
Maximum spatial batch extension              ...  20.17, 19.50, 18.55 au
Average spatial batch extension              ...   2.41,  2.39,  2.41 au

Final grid set up in    0.8 sec
Final integration                            ... done (   0.8 sec)
Change in XC energy                          ...    -0.000168315
Integrated number of electrons               ...    77.999981606
Previous integrated no of electrons          ...    77.997375139

----------------
TOTAL SCF ENERGY
----------------

Total Energy       :         -550.59926044 Eh          -14982.56758 eV

Components:
Nuclear Repulsion  :          535.14032783 Eh           14561.90863 eV
Electronic Energy  :        -1085.73958827 Eh          -29544.47621 eV
One Electron Energy:        -1814.00085863 Eh          -49361.47285 eV
Two Electron Energy:          728.26127036 Eh           19816.99664 eV

Virial components:
Potential Energy   :        -1096.35003025 Eh          -29833.20101 eV
Kinetic Energy     :          545.75076981 Eh           14850.63344 eV
Virial Ratio       :            2.00888407


DFT components:
N(Alpha)           :       38.999990803132 electrons
N(Beta)            :       38.999990803132 electrons
N(Total)           :       77.999981606264 electrons
E(X)               :      -51.297298447577 Eh       
E(C)               :       -2.641963746027 Eh       
E(XC)              :      -53.939262193604 Eh       

---------------
SCF CONVERGENCE
---------------

  Last Energy change         ...  -1.9871e-009  Tolerance :  1.0000e-008
  Last MAX-Density change    ...   7.9824e-006  Tolerance :  1.0000e-007
  Last RMS-Density change    ...   2.5713e-007  Tolerance :  5.0000e-009
  Last Orbital Gradient      ...   1.1281e-006  Tolerance :  1.0000e-005
  Last Orbital Rotation      ...   3.9208e-006  Tolerance :  1.0000e-005

             **** THE GBW FILE WAS UPDATED (glutamic.gbw) ****
             **** DENSITY FILE WAS UPDATED (glutamic.scfp.tmp) ****
             **** ENERGY FILE WAS UPDATED (glutamic.en.tmp) ****
----------------
ORBITAL ENERGIES
----------------

  NO   OCC          E(Eh)            E(eV) 
   0   2.0000     -19.263905      -524.1975 
   1   2.0000     -19.263326      -524.1818 
   2   2.0000     -19.197067      -522.3787 
   3   2.0000     -19.196041      -522.3508 
   4   2.0000     -14.388238      -391.5239 
   5   2.0000     -10.372228      -282.2427 
   6   2.0000     -10.366654      -282.0910 
   7   2.0000     -10.293990      -280.1137 
   8   2.0000     -10.267779      -279.4005 
   9   2.0000     -10.265344      -279.3342 
  10   2.0000      -1.120842       -30.4997 
  11   2.0000      -1.119581       -30.4653 
  12   2.0000      -1.031869       -28.0786 
  13   2.0000      -1.031589       -28.0710 
  14   2.0000      -0.913866       -24.8676 
  15   2.0000      -0.818463       -22.2715 
  16   2.0000      -0.744945       -20.2710 
  17   2.0000      -0.677120       -18.4254 
  18   2.0000      -0.655560       -17.8387 
  19   2.0000      -0.631570       -17.1859 
  20   2.0000      -0.564206       -15.3528 
  21   2.0000      -0.535458       -14.5705 
  22   2.0000      -0.517749       -14.0887 
  23   2.0000      -0.499596       -13.5947 
  24   2.0000      -0.479473       -13.0471 
  25   2.0000      -0.468831       -12.7575 
  26   2.0000      -0.459271       -12.4974 
  27   2.0000      -0.449090       -12.2204 
  28   2.0000      -0.425153       -11.5690 
  29   2.0000      -0.413906       -11.2630 
  30   2.0000      -0.405003       -11.0207 
  31   2.0000      -0.388223       -10.5641 
  32   2.0000      -0.378235       -10.2923 
  33   2.0000      -0.373233       -10.1562 
  34   2.0000      -0.334844        -9.1116 
  35   2.0000      -0.334362        -9.0985 
  36   2.0000      -0.293686        -7.9916 
  37   2.0000      -0.287735        -7.8297 
  38   2.0000      -0.265196        -7.2163 
  39   0.0000       0.001949         0.0530 
  40   0.0000       0.009095         0.2475 
  41   0.0000       0.028874         0.7857 
  42   0.0000       0.038214         1.0399 
  43   0.0000       0.068491         1.8637 
  44   0.0000       0.082200         2.2368 
  45   0.0000       0.099252         2.7008 
  46   0.0000       0.128701         3.5021 
  47   0.0000       0.134288         3.6542 
  48   0.0000       0.147247         4.0068 
  49   0.0000       0.163327         4.4444 
  50   0.0000       0.191125         5.2008 
  51   0.0000       0.199895         5.4394 
  52   0.0000       0.229180         6.2363 
  53   0.0000       0.234575         6.3831 
  54   0.0000       0.238343         6.4857 
  55   0.0000       0.293038         7.9740 
  56   0.0000       0.357449         9.7267 
  57   0.0000       0.374170        10.1817 
  58   0.0000       0.386601        10.5199 
  59   0.0000       0.407376        11.0853 
  60   0.0000       0.429861        11.6971 
  61   0.0000       0.442524        12.0417 
  62   0.0000       0.463671        12.6171 
  63   0.0000       0.484045        13.1715 
  64   0.0000       0.505777        13.7629 
  65   0.0000       0.548101        14.9146 
  66   0.0000       0.551418        15.0048 
  67   0.0000       0.576112        15.6768 
  68   0.0000       0.591771        16.1029 
  69   0.0000       0.601431        16.3658 
  70   0.0000       0.618401        16.8276 
  71   0.0000       0.623405        16.9637 
  72   0.0000       0.631733        17.1903 
  73   0.0000       0.639780        17.4093 
  74   0.0000       0.647658        17.6237 
  75   0.0000       0.652975        17.7684 
  76   0.0000       0.657467        17.8906 
  77   0.0000       0.667255        18.1569 
  78   0.0000       0.672074        18.2881 
  79   0.0000       0.685983        18.6666 
  80   0.0000       0.705168        19.1886 
  81   0.0000       0.711504        19.3610 
  82   0.0000       0.752982        20.4897 
  83   0.0000       0.785989        21.3878 
  84   0.0000       0.794703        21.6250 
  85   0.0000       0.838111        22.8062 
  86   0.0000       0.849613        23.1191 
  87   0.0000       0.877204        23.8699 
  88   0.0000       0.921226        25.0678 
  89   0.0000       0.943713        25.6797 
  90   0.0000       0.962296        26.1854 
  91   0.0000       0.977343        26.5949 
  92   0.0000       0.988085        26.8872 
  93   0.0000       1.005320        27.3561 
  94   0.0000       1.029079        28.0027 
  95   0.0000       1.059117        28.8200 
  96   0.0000       1.080695        29.4072 
  97   0.0000       1.095366        29.8064 
  98   0.0000       1.133488        30.8438 
  99   0.0000       1.170494        31.8508 
 100   0.0000       1.217594        33.1324 
 101   0.0000       1.248026        33.9605 
 102   0.0000       1.268481        34.5171 
 103   0.0000       1.274569        34.6828 
 104   0.0000       1.307806        35.5872 
 105   0.0000       1.321117        35.9494 
 106   0.0000       1.345898        36.6238 
 107   0.0000       1.366645        37.1883 
 108   0.0000       1.389678        37.8151 
 109   0.0000       1.401230        38.1294 
 110   0.0000       1.403507        38.1914 
 111   0.0000       1.444420        39.3047 
 112   0.0000       1.473288        40.0902 
 113   0.0000       1.569237        42.7011 
 114   0.0000       1.582136        43.0521 
 115   0.0000       1.601849        43.5885 
 116   0.0000       1.627315        44.2815 
 117   0.0000       1.631273        44.3892 
 118   0.0000       1.654263        45.0148 
 119   0.0000       1.670770        45.4640 
 120   0.0000       1.690020        45.9878 
 121   0.0000       1.715656        46.6854 
 122   0.0000       1.730089        47.0781 
 123   0.0000       1.743604        47.4459 
 124   0.0000       1.764382        48.0113 
 125   0.0000       1.772062        48.2202 
 126   0.0000       1.800846        49.0035 
 127   0.0000       1.810648        49.2702 
 128   0.0000       1.824602        49.6499 
 129   0.0000       1.842533        50.1379 
 130   0.0000       1.873171        50.9716 
 131   0.0000       1.882817        51.2340 
 132   0.0000       1.896886        51.6169 
 133   0.0000       1.927660        52.4543 
 134   0.0000       1.962182        53.3937 
 135   0.0000       1.966162        53.5020 
 136   0.0000       1.986792        54.0634 
 137   0.0000       2.047327        55.7106 
 138   0.0000       2.053287        55.8728 
 139   0.0000       2.076476        56.5038 
 140   0.0000       2.121095        57.7179 
 141   0.0000       2.153171        58.5908 
 142   0.0000       2.159181        58.7543 
 143   0.0000       2.200220        59.8710 
 144   0.0000       2.221735        60.4565 
 145   0.0000       2.278689        62.0063 
 146   0.0000       2.288976        62.2862 
 147   0.0000       2.318699        63.0950 
 148   0.0000       2.372234        64.5518 
 149   0.0000       2.392926        65.1148 
 150   0.0000       2.447508        66.6001 
 151   0.0000       2.463349        67.0311 
 152   0.0000       2.533486        68.9397 
 153   0.0000       2.541130        69.1477 
 154   0.0000       2.642745        71.9128 
 155   0.0000       2.655105        72.2491 
 156   0.0000       2.669956        72.6532 
 157   0.0000       2.708176        73.6932 
 158   0.0000       2.723021        74.0972 
 159   0.0000       2.734296        74.4040 
 160   0.0000       2.768916        75.3460 
 161   0.0000       2.792731        75.9941 
 162   0.0000       2.794888        76.0528 
 163   0.0000       2.823610        76.8343 
 164   0.0000       2.839788        77.2746 
 165   0.0000       2.856159        77.7200 
 166   0.0000       2.902738        78.9875 
 167   0.0000       2.970696        80.8367 
 168   0.0000       2.984853        81.2220 
 169   0.0000       3.027960        82.3950 
 170   0.0000       3.035162        82.5910 
 171   0.0000       3.056756        83.1786 
 172   0.0000       3.069435        83.5236 
 173   0.0000       3.175495        86.4096 
 174   0.0000       3.176529        86.4378 
 175   0.0000       3.233547        87.9893 
 176   0.0000       3.285986        89.4162 
 177   0.0000       3.288501        89.4847 
 178   0.0000       3.368870        91.6716 
 179   0.0000       3.497162        95.1626 
 180   0.0000       3.499330        95.2216 
 181   0.0000       3.637392        98.9785 
 182   0.0000       3.641815        99.0988 
 183   0.0000       3.814571       103.7997 
 184   0.0000       3.820967       103.9738 

                    ********************************
                    * MULLIKEN POPULATION ANALYSIS *
                    ********************************

-----------------------
MULLIKEN ATOMIC CHARGES
-----------------------
   0 C :   -0.076944
   1 C :   -0.094917
   2 C :    0.226893
   3 O :   -0.250287
   4 O :   -0.204533
   5 C :   -0.081888
   6 C :    0.232911
   7 O :   -0.238841
   8 O :   -0.205181
   9 N :   -0.261755
  10 H :    0.069479
  11 H :    0.042955
  12 H :    0.077903
  13 H :    0.058453
  14 H :    0.194292
  15 H :    0.049874
  16 H :    0.195150
  17 H :    0.132225
  18 H :    0.134212
Sum of atomic charges:    0.0000000

--------------------------------
MULLIKEN REDUCED ORBITAL CHARGES
--------------------------------
  0 C s       :     3.102395  s :     3.102395
      pz      :     1.007971  p :     2.940841
      px      :     0.910228
      py      :     1.022641
      dz2     :     0.008121  d :     0.033708
      dxz     :     0.005388
      dyz     :     0.005995
      dx2y2   :     0.008525
      dxy     :     0.005680
  1 C s       :     3.025207  s :     3.025207
      pz      :     1.055201  p :     3.037471
      px      :     0.952273
      py      :     1.029998
      dz2     :     0.008943  d :     0.032240
      dxz     :     0.004567
      dyz     :     0.005142
      dx2y2   :     0.009689
      dxy     :     0.003898
  2 C s       :     3.064235  s :     3.064235
      pz      :     0.796430  p :     2.573961
      px      :     0.972871
      py      :     0.804660
      dz2     :     0.036764  d :     0.134911
      dxz     :     0.031444
      dyz     :     0.024655
      dx2y2   :     0.023534
      dxy     :     0.018515
  3 O s       :     3.773639  s :     3.773639
      pz      :     1.414782  p :     4.458600
      px      :     1.649350
      py      :     1.394469
      dz2     :     0.004346  d :     0.018048
      dxz     :     0.004665
      dyz     :     0.003876
      dx2y2   :     0.002254
      dxy     :     0.002907
  4 O s       :     3.676919  s :     3.676919
      pz      :     1.304733  p :     4.515408
      px      :     1.612116
      py      :     1.598559
      dz2     :     0.001134  d :     0.012206
      dxz     :     0.004932
      dyz     :     0.001617
      dx2y2   :     0.001579
      dxy     :     0.002944
  5 C s       :     3.081474  s :     3.081474
      pz      :     0.908940  p :     2.943344
      px      :     1.003946
      py      :     1.030458
      dz2     :     0.017535  d :     0.057070
      dxz     :     0.010987
      dyz     :     0.011433
      dx2y2   :     0.009251
      dxy     :     0.007864
  6 C s       :     3.056869  s :     3.056869
      pz      :     0.846237  p :     2.578320
      px      :     0.836572
      py      :     0.895511
      dz2     :     0.025931  d :     0.131900
      dxz     :     0.026165
      dyz     :     0.040647
      dx2y2   :     0.023052
      dxy     :     0.016105
  7 O s       :     3.761989  s :     3.761989
      pz      :     1.762076  p :     4.458759
      px      :     1.358129
      py      :     1.338554
      dz2     :     0.002247  d :     0.018092
      dxz     :     0.001347
      dyz     :     0.002655
      dx2y2   :     0.005852
      dxy     :     0.005990
  8 O s       :     3.674474  s :     3.674474
      pz      :     1.471411  p :     4.518570
      px      :     1.618138
      py      :     1.429021
      dz2     :     0.005278  d :     0.012136
      dxz     :     0.002009
      dyz     :     0.001710
      dx2y2   :     0.000742
      dxy     :     0.002397
  9 N s       :     3.446147  s :     3.446147
      pz      :     1.442648  p :     3.798456
      px      :     1.133298
      py      :     1.222510
      dz2     :     0.005715  d :     0.017152
      dxz     :     0.002040
      dyz     :     0.002298
      dx2y2   :     0.006156
      dxy     :     0.000943
 10 H s       :     0.908520  s :     0.908520
      pz      :     0.003771  p :     0.022001
      px      :     0.005082
      py      :     0.013147
 11 H s       :     0.934988  s :     0.934988
      pz      :     0.010528  p :     0.022057
      px      :     0.005432
      py      :     0.006096
 12 H s       :     0.898645  s :     0.898645
      pz      :     0.011036  p :     0.023452
      px      :     0.005978
      py      :     0.006438
 13 H s       :     0.918728  s :     0.918728
      pz      :     0.004190  p :     0.022819
      px      :     0.005487
      py      :     0.013143
 14 H s       :     0.735587  s :     0.735587
      pz      :     0.028990  p :     0.070121
      px      :     0.019354
      py      :     0.021777
 15 H s       :     0.929816  s :     0.929816
      pz      :     0.002700  p :     0.020310
      px      :     0.004650
      py      :     0.012959
 16 H s       :     0.734502  s :     0.734502
      pz      :     0.015057  p :     0.070348
      px      :     0.024344
      py      :     0.030947
 17 H s       :     0.824037  s :     0.824037
      pz      :     0.010493  p :     0.043738
      px      :     0.010511
      py      :     0.022734
 18 H s       :     0.822032  s :     0.822032
      pz      :     0.010197  p :     0.043756
      px      :     0.024209
      py      :     0.009350


                     *******************************
                     * LOEWDIN POPULATION ANALYSIS *
                     *******************************

----------------------
LOEWDIN ATOMIC CHARGES
----------------------
   0 C :   -0.036218
   1 C :   -0.086524
   2 C :    0.097132
   3 O :   -0.185862
   4 O :   -0.044143
   5 C :   -0.038817
   6 C :    0.084205
   7 O :   -0.182725
   8 O :   -0.041888
   9 N :   -0.117823
  10 H :    0.044143
  11 H :    0.030170
  12 H :    0.049982
  13 H :    0.044980
  14 H :    0.101793
  15 H :    0.036189
  16 H :    0.098510
  17 H :    0.072541
  18 H :    0.074355

-------------------------------
LOEWDIN REDUCED ORBITAL CHARGES
-------------------------------
  0 C s       :     2.852825  s :     2.852825
      pz      :     1.035475  p :     3.098683
      px      :     0.999316
      py      :     1.063892
      dz2     :     0.019919  d :     0.084710
      dxz     :     0.013716
      dyz     :     0.015308
      dx2y2   :     0.022517
      dxy     :     0.013250
  1 C s       :     2.858086  s :     2.858086
      pz      :     1.062489  p :     3.145315
      px      :     1.025426
      py      :     1.057399
      dz2     :     0.021489  d :     0.083123
      dxz     :     0.012222
      dyz     :     0.013439
      dx2y2   :     0.025658
      dxy     :     0.010316
  2 C s       :     2.860753  s :     2.860753
      pz      :     0.890326  p :     2.752806
      px      :     1.028406
      py      :     0.834074
      dz2     :     0.076740  d :     0.289309
      dxz     :     0.070162
      dyz     :     0.054542
      dx2y2   :     0.050133
      dxy     :     0.037731
  3 O s       :     3.561514  s :     3.561514
      pz      :     1.488038  p :     4.594066
      px      :     1.685090
      py      :     1.420938
      dz2     :     0.006043  d :     0.030282
      dxz     :     0.009220
      dyz     :     0.007136
      dx2y2   :     0.003043
      dxy     :     0.004840
  4 O s       :     3.410242  s :     3.410242
      pz      :     1.367511  p :     4.608794
      px      :     1.646448
      py      :     1.594834
      dz2     :     0.002881  d :     0.025106
      dxz     :     0.010433
      dyz     :     0.005038
      dx2y2   :     0.001913
      dxy     :     0.004841
  5 C s       :     2.856495  s :     2.856495
      pz      :     0.976112  p :     3.050073
      px      :     1.035544
      py      :     1.038416
      dz2     :     0.042538  d :     0.132249
      dxz     :     0.023115
      dyz     :     0.026965
      dx2y2   :     0.023289
      dxy     :     0.016342
  6 C s       :     2.870475  s :     2.870475
      pz      :     0.939697  p :     2.757508
      px      :     0.867737
      py      :     0.950074
      dz2     :     0.060670  d :     0.287812
      dxz     :     0.057190
      dyz     :     0.090612
      dx2y2   :     0.042204
      dxy     :     0.037136
  7 O s       :     3.561105  s :     3.561105
      pz      :     1.762279  p :     4.591296
      px      :     1.400236
      py      :     1.428780
      dz2     :     0.004589  d :     0.030324
      dxz     :     0.001985
      dyz     :     0.003902
      dx2y2   :     0.007619
      dxy     :     0.012229
  8 O s       :     3.408454  s :     3.408454
      pz      :     1.504719  p :     4.608383
      px      :     1.618991
      py      :     1.484673
      dz2     :     0.011179  d :     0.025051
      dxz     :     0.003203
      dyz     :     0.003478
      dx2y2   :     0.001318
      dxy     :     0.005873
  9 N s       :     3.145253  s :     3.145253
      pz      :     1.453505  p :     3.933265
      px      :     1.199839
      py      :     1.279921
      dz2     :     0.011951  d :     0.039305
      dxz     :     0.004399
      dyz     :     0.004685
      dx2y2   :     0.014866
      dxy     :     0.003404
 10 H s       :     0.889641  s :     0.889641
      pz      :     0.011828  p :     0.066217
      px      :     0.016188
      py      :     0.038201
 11 H s       :     0.903816  s :     0.903816
      pz      :     0.031928  p :     0.066014
      px      :     0.016709
      py      :     0.017377
 12 H s       :     0.880128  s :     0.880128
      pz      :     0.033657  p :     0.069891
      px      :     0.017904
      py      :     0.018331
 13 H s       :     0.887714  s :     0.887714
      pz      :     0.013085  p :     0.067307
      px      :     0.016926
      py      :     0.037296
 14 H s       :     0.718852  s :     0.718852
      pz      :     0.069043  p :     0.179355
      px      :     0.055271
      py      :     0.055041
 15 H s       :     0.897873  s :     0.897873
      pz      :     0.010756  p :     0.065939
      px      :     0.016381
      py      :     0.038802
 16 H s       :     0.720719  s :     0.720719
      pz      :     0.036907  p :     0.180771
      px      :     0.062853
      py      :     0.081011
 17 H s       :     0.812311  s :     0.812311
      pz      :     0.029502  p :     0.115147
      px      :     0.022711
      py      :     0.062934
 18 H s       :     0.810318  s :     0.810318
      pz      :     0.029578  p :     0.115327
      px      :     0.064669
      py      :     0.021080


                      *****************************
                      * MAYER POPULATION ANALYSIS *
                      *****************************

  NA   - Mulliken gross atomic population
  ZA   - Total nuclear charge
  QA   - Mulliken gross atomic charge
  VA   - Mayer's total valence
  BVA  - Mayer's bonded valence
  FA   - Mayer's free valence

  ATOM       NA         ZA         QA         VA         BVA        FA
  0 C      6.0769     6.0000    -0.0769     4.0319     4.0319    -0.0000
  1 C      6.0949     6.0000    -0.0949     3.8289     3.8289    -0.0000
  2 C      5.7731     6.0000     0.2269     4.2948     4.2948    -0.0000
  3 O      8.2503     8.0000    -0.2503     2.2279     2.2279    -0.0000
  4 O      8.2045     8.0000    -0.2045     2.2160     2.2160    -0.0000
  5 C      6.0819     6.0000    -0.0819     3.8990     3.8990     0.0000
  6 C      5.7671     6.0000     0.2329     4.2752     4.2752     0.0000
  7 O      8.2388     8.0000    -0.2388     2.2471     2.2471     0.0000
  8 O      8.2052     8.0000    -0.2052     2.2100     2.2100     0.0000
  9 N      7.2618     7.0000    -0.2618     3.0748     3.0748    -0.0000
 10 H      0.9305     1.0000     0.0695     0.9906     0.9906     0.0000
 11 H      0.9570     1.0000     0.0430     0.9980     0.9980     0.0000
 12 H      0.9221     1.0000     0.0779     1.0148     1.0148     0.0000
 13 H      0.9415     1.0000     0.0585     0.9881     0.9881     0.0000
 14 H      0.8057     1.0000     0.1943     1.0026     1.0026     0.0000
 15 H      0.9501     1.0000     0.0499     0.9774     0.9774     0.0000
 16 H      0.8049     1.0000     0.1951     1.0068     1.0068     0.0000
 17 H      0.8678     1.0000     0.1322     0.9997     0.9997    -0.0000
 18 H      0.8658     1.0000     0.1342     0.9963     0.9963    -0.0000

  Mayer bond orders larger than 0.1
B(  0-C ,  1-C ) :   1.0691 B(  0-C ,  5-C ) :   1.0234 B(  0-C , 10-H ) :   0.9395 
B(  0-C , 11-H ) :   0.9403 B(  1-C ,  2-C ) :   0.9763 B(  1-C , 12-H ) :   0.9133 
B(  1-C , 13-H ) :   0.9227 B(  2-C ,  3-O ) :   2.0734 B(  2-C ,  4-O ) :   1.1944 
B(  4-O , 14-H ) :   0.9428 B(  5-C ,  6-C ) :   0.9082 B(  5-C ,  9-N ) :   1.0940 
B(  5-C , 15-H ) :   0.9010 B(  6-C ,  7-O ) :   2.1200 B(  6-C ,  8-O ) :   1.1830 
B(  8-O , 16-H ) :   0.9406 B(  9-N , 17-H ) :   0.9552 B(  9-N , 18-H ) :   0.9579 


-------
TIMINGS
-------

Total SCF time: 0 days 0 hours 0 min 50 sec 

Total time                  ....      50.330 sec
Sum of individual times     ....      50.240 sec  ( 99.8%)

Fock matrix formation       ....      48.828 sec  ( 97.0%)
  XC integration            ....       4.074 sec  (  8.3% of F)
    Basis function eval.    ....       1.176 sec  ( 28.9% of XC)
    Density eval.           ....       1.165 sec  ( 28.6% of XC)
    XC-Functional eval.     ....       0.196 sec  (  4.8% of XC)
    XC-Potential eval.      ....       1.272 sec  ( 31.2% of XC)
Diagonalization             ....       0.032 sec  (  0.1%)
Density matrix formation    ....       0.007 sec  (  0.0%)
Population analysis         ....       0.023 sec  (  0.0%)
Initial guess               ....       0.313 sec  (  0.6%)
Orbital Transformation      ....       0.000 sec  (  0.0%)
Orbital Orthonormalization  ....       0.000 sec  (  0.0%)
DIIS solution               ....       0.012 sec  (  0.0%)
SOSCF solution              ....       0.025 sec  (  0.0%)
Grid generation             ....       1.000 sec  (  2.0%)

-------------------------   --------------------
FINAL SINGLE POINT ENERGY      -550.599260440438
-------------------------   --------------------

------------------------------------------------------------------------------
                         ORCA SCF GRADIENT CALCULATION
------------------------------------------------------------------------------

Gradient of the Kohn-Sham DFT energy:
Kohn-Sham wavefunction type      ... RKS
Hartree-Fock exchange scaling    ...    0.250
Number of operators              ...    1
Number of atoms                  ...   19
Basis set dimensions             ...  185
Integral neglect threshold       ... 2.5e-011
Integral primitive cutoff        ... 2.5e-012

Nuclear repulsion gradient       ... done
One Electron Gradient            
  ECP gradient                   ... done
Pre-screening matrix             ... done
Starting the two electron gradient:
Two electron gradient done
Exchange-correlation gradient    ... done

------------------
CARTESIAN GRADIENT
------------------

   1   C   :    0.000944357    0.007487102   -0.004184484
   2   C   :   -0.002883744   -0.000828384   -0.002031169
   3   C   :    0.018301473   -0.015533594    0.026514594
   4   O   :   -0.014793654    0.018213242   -0.028943908
   5   O   :    0.006964137   -0.002092928    0.003906921
   6   C   :    0.002891192   -0.007228591   -0.016049169
   7   C   :   -0.022405697   -0.027683050    0.007238490
   8   O   :    0.022058254    0.030305524    0.008288586
   9   O   :   -0.005230856   -0.007544467    0.002109719
  10   N   :   -0.004398666    0.000923239    0.004502200
  11   H   :   -0.000676370    0.007480658    0.003159034
  12   H   :    0.000561011   -0.007004527   -0.004941438
  13   H   :   -0.002513605    0.006190786    0.004230749
  14   H   :    0.000295689   -0.004708446   -0.004817154
  15   H   :   -0.011094546   -0.006307188    0.009459339
  16   H   :    0.001320918   -0.003704913   -0.000102401
  17   H   :   -0.000492114   -0.001538986   -0.015998323
  18   H   :   -0.012619414    0.020247340    0.006007968
  19   H   :    0.023771635   -0.006672817    0.001650447

Difference to translation invariance:
           :    0.0000000000    0.0000000000    0.0000000000

Norm of the cartesian gradient     ...    0.0897629366
RMS gradient                       ...    0.0118893914
MAX gradient                       ...    0.0303055239

-------
TIMINGS
-------

Total SCF gradient time            ...       17.415 sec

One electron gradient       ....       0.150 sec  (  0.9%)
Prescreening matrices       ....       0.085 sec  (  0.5%)
Two electron gradient       ....      12.768 sec  ( 73.3%)
XC gradient                 ....       4.318 sec  ( 24.8%)
------------------------------------------------------------------------------
                         ORCA GEOMETRY RELAXATION STEP
------------------------------------------------------------------------------

Reading the OPT-File                    .... done
Getting information on internals        .... done
Copying old internal coords+grads       .... done
Making the new internal coordinates     .... (new redundants).... done
Validating the new internal coordinates .... (new redundants).... done
Calculating the B-matrix                .... done
Calculating the G,G- and P matrices     .... done
Transforming gradient to internals      .... done
Projecting the internal gradient        .... done
Number of atoms                         ....  19
Number of internal coordinates          ....  87
Current Energy                          ....  -550.599260440 Eh
Current gradient norm                   ....     0.089762937 Eh/bohr
Maximum allowed component of the step   ....  0.300
Current trust radius                    ....  0.300
Evaluating the initial hessian          ....  (Almloef) done
Projecting the Hessian                  .... done
Forming the augmented Hessian           .... done
Diagonalizing the augmented Hessian     .... done
Last element of RFO vector              ....  0.976765340
Lowest eigenvalues of augmented Hessian:
 -0.016147918  0.010341971  0.010534275  0.011224352  0.012004020
Length of the computed step             ....  0.219409528
The final length of the internal step   ....  0.219409528
Converting the step to cartesian space:
 Initial RMS(Int)=    0.0235231705
Transforming coordinates:
 Iter   0:  RMS(Cart)=    0.0630124934 RMS(Int)=    0.0234936744
 Iter   1:  RMS(Cart)=    0.0020573502 RMS(Int)=    0.0016290406
 Iter   2:  RMS(Cart)=    0.0002159116 RMS(Int)=    0.0000975979
 Iter   3:  RMS(Cart)=    0.0000201579 RMS(Int)=    0.0000175196
 Iter   4:  RMS(Cart)=    0.0000023346 RMS(Int)=    0.0000011877
 Iter   5:  RMS(Cart)=    0.0000002275 RMS(Int)=    0.0000001939
 Iter   6:  RMS(Cart)=    0.0000000265 RMS(Int)=    0.0000000146
done
Storing new coordinates                 .... done

                                .--------------------.
          ----------------------|Geometry convergence|-------------------------
          Item                value                   Tolerance       Converged
          ---------------------------------------------------------------------
          RMS gradient        0.0095622449            0.0001000000      NO
          MAX gradient        0.0380747087            0.0003000000      NO
          RMS step            0.0235231705            0.0020000000      NO
          MAX step            0.0735312588            0.0040000000      NO
          ........................................................
          Max(Bonds)      0.0319      Max(Angles)    4.21
          Max(Dihed)        3.06      Max(Improp)    0.00
          ---------------------------------------------------------------------

The optimization has not yet converged - more geometry cycles are needed


    ---------------------------------------------------------------------------
                         Redundant Internal Coordinates
                            (Angstroem and degrees)

        Definition                    Value    dE/dq     Step     New-Value
    ----------------------------------------------------------------------------
     1. B(C   1,C   0)                1.5382  0.011163 -0.0156    1.5226   
     2. B(C   2,C   1)                1.5099  0.000881 -0.0011    1.5088   
     3. B(O   3,C   2)                1.2220  0.036809 -0.0185    1.2035   
     4. B(O   4,C   2)                1.3485  0.015835 -0.0125    1.3360   
     5. B(C   5,C   0)                1.5409  0.004869 -0.0069    1.5340   
     6. B(C   6,C   5)                1.5195 -0.006442  0.0084    1.5279   
     7. B(O   7,C   6)                1.2216  0.038075 -0.0191    1.2025   
     8. B(O   8,C   6)                1.3507  0.017018 -0.0136    1.3371   
     9. B(N   9,C   5)                1.4670  0.018662 -0.0226    1.4444   
    10. B(H  10,C   0)                1.1125  0.007325 -0.0111    1.1013   
    11. B(H  11,C   0)                1.1113  0.007024 -0.0106    1.1007   
    12. B(H  12,C   1)                1.1112  0.005450 -0.0083    1.1029   
    13. B(H  13,C   1)                1.1116  0.004654 -0.0071    1.1046   
    14. B(H  14,O   4)                0.9673  0.004337 -0.0044    0.9629   
    15. B(H  15,C   5)                1.1131  0.003933 -0.0060    1.1071   
    16. B(H  16,O   8)                0.9669  0.003912 -0.0040    0.9629   
    17. B(H  17,N   9)                1.0463  0.023553 -0.0316    1.0147   
    18. B(H  18,N   9)                1.0451  0.023919 -0.0319    1.0132   
    19. A(C   1,C   0,H  11)          108.13 -0.001310    0.43    108.56   
    20. A(C   5,C   0,H  11)          109.38 -0.002421    0.73    110.12   
    21. A(C   5,C   0,H  10)          109.08 -0.001078    0.10    109.18   
    22. A(C   1,C   0,H  10)          109.31 -0.001052    0.05    109.36   
    23. A(C   1,C   0,C   5)          112.31  0.003099   -0.24    112.07   
    24. A(H  10,C   0,H  11)          108.56  0.002801   -1.11    107.45   
    25. A(C   0,C   1,C   2)          112.69  0.003247   -0.20    112.49   
    26. A(C   0,C   1,H  13)          109.26 -0.003061    0.60    109.86   
    27. A(C   2,C   1,H  12)          107.99 -0.003268    0.78    108.77   
    28. A(C   2,C   1,H  13)          108.56 -0.000380    0.14    108.70   
    29. A(H  12,C   1,H  13)          108.67  0.003526   -1.36    107.31   
    30. A(C   0,C   1,H  12)          109.59  0.000025   -0.02    109.57   
    31. A(C   1,C   2,O   3)          121.04 -0.014832    1.93    122.98   
    32. A(O   3,C   2,O   4)          119.04 -0.001511    0.23    119.27   
    33. A(C   1,C   2,O   4)          119.92  0.016343   -2.17    117.75   
    34. A(C   2,O   4,H  14)          121.49  0.027930   -4.13    117.36   
    35. A(C   0,C   5,C   6)          110.24  0.001265    0.03    110.27   
    36. A(N   9,C   5,H  15)          108.43  0.001389   -0.54    107.89   
    37. A(C   6,C   5,H  15)          108.00  0.000969   -0.49    107.51   
    38. A(C   0,C   5,H  15)          108.89  0.000117   -0.56    108.33   
    39. A(C   6,C   5,N   9)          111.25 -0.003920    1.27    112.51   
    40. A(C   0,C   5,N   9)          109.96  0.000267    0.24    110.20   
    41. A(C   5,C   6,O   7)          120.57 -0.013397    1.77    122.33   
    42. A(O   7,C   6,O   8)          118.76 -0.002113    0.31    119.07   
    43. A(C   5,C   6,O   8)          120.67  0.015506   -2.07    118.60   
    44. A(C   6,O   8,H  16)          122.17  0.028481   -4.21    117.96   
    45. A(H  17,N   9,H  18)          109.43  0.003576   -2.12    107.32   
    46. A(C   5,N   9,H  18)          110.14 -0.001330   -0.46    109.68   
    47. A(C   5,N   9,H  17)          110.62  0.003992   -1.34    109.28   
    48. D(H  13,C   1,C   0,H  11)     61.52 -0.002205    1.07     62.59   
    49. D(H  12,C   1,C   0,H  10)    -61.51  0.002285   -1.30    -62.81   
    50. D(H  12,C   1,C   0,C   5)     59.70  0.002232   -1.30     58.40   
    51. D(H  13,C   1,C   0,C   5)    -59.26 -0.000238    0.01    -59.25   
    52. D(H  13,C   1,C   0,H  10)    179.53 -0.000186    0.01    179.54   
    53. D(H  12,C   1,C   0,H  11)   -179.52  0.000266   -0.24   -179.76   
    54. D(C   2,C   1,C   0,C   5)    179.97  0.000240   -0.45    179.52   
    55. D(C   2,C   1,C   0,H  10)     58.77  0.000292   -0.46     58.31   
    56. D(C   2,C   1,C   0,H  11)    -59.24 -0.001727    0.60    -58.64   
    57. D(O   4,C   2,C   1,H  12)    -58.45 -0.000904    0.75    -57.71   
    58. D(O   3,C   2,C   1,H  13)   -121.01  0.001276   -0.35   -121.36   
    59. D(O   3,C   2,C   1,H  12)    121.34 -0.000906    0.76    122.10   
    60. D(O   3,C   2,C   1,C   0)      0.15 -0.000752    0.38      0.53   
    61. D(O   4,C   2,C   1,H  13)     59.20  0.001278   -0.36     58.84   
    62. D(O   4,C   2,C   1,C   0)   -179.64 -0.000750    0.36   -179.28   
    63. D(H  14,O   4,C   2,O   3)   -179.67 -0.000193    0.24   -179.43   
    64. D(H  14,O   4,C   2,C   1)      0.13 -0.000224    0.26      0.39   
    65. D(H  15,C   5,C   0,H  11)    -60.22  0.000792   -0.43    -60.64   
    66. D(H  15,C   5,C   0,H  10)   -178.82 -0.000547    0.43   -178.39   
    67. D(H  15,C   5,C   0,C   1)     59.84 -0.000501    0.45     60.29   
    68. D(N   9,C   5,C   0,H  11)   -178.89 -0.001125    0.43   -178.46   
    69. D(N   9,C   5,C   0,H  10)     62.51 -0.002463    1.28     63.80   
    70. D(N   9,C   5,C   0,C   1)    -58.83 -0.002418    1.31    -57.52   
    71. D(C   6,C   5,C   0,H  11)     58.10  0.002785   -1.35     56.75   
    72. D(C   6,C   5,C   0,H  10)    -60.50  0.001446   -0.49    -61.00   
    73. D(C   6,C   5,C   0,C   1)    178.16  0.001492   -0.47    177.69   
    74. D(O   8,C   6,C   5,C   0)    -60.10 -0.001315    1.37    -58.73   
    75. D(O   7,C   6,C   5,H  15)   -120.82  0.000620   -0.47   -121.28   
    76. D(O   7,C   6,C   5,N   9)     -1.93  0.000627   -0.70     -2.63   
    77. D(O   8,C   6,C   5,N   9)    177.64  0.000142    0.19    177.82   
    78. D(O   7,C   6,C   5,C   0)    120.32 -0.000829    0.49    120.81   
    79. D(O   8,C   6,C   5,H  15)     58.76  0.000135    0.41     59.17   
    80. D(H  16,O   8,C   6,O   7)    179.02 -0.000684    0.95    179.97   
    81. D(H  16,O   8,C   6,C   5)     -0.56 -0.000157    0.08     -0.48   
    82. D(H  18,N   9,C   5,H  15)     58.61 -0.003303    1.64     60.26   
    83. D(H  18,N   9,C   5,C   6)    -60.01 -0.003039    1.83    -58.18   
    84. D(H  18,N   9,C   5,C   0)    177.57 -0.002173    0.77    178.34   
    85. D(H  17,N   9,C   5,H  15)    179.72  0.002918   -2.19    177.53   
    86. D(H  17,N   9,C   5,C   6)     61.09  0.003182   -2.00     59.10   
    87. D(H  17,N   9,C   5,C   0)    -61.33  0.004047   -3.06    -64.39   
    ----------------------------------------------------------------------------

         *************************************************************
         *                GEOMETRY OPTIMIZATION CYCLE   2            *
         *************************************************************
---------------------------------
CARTESIAN COORDINATES (ANGSTROEM)
---------------------------------
  C      1.046011    0.059147    0.073860
  C      0.485527   -0.706713    1.264519
  C     -1.023009   -0.730074    1.277289
  O     -1.693539   -0.204907    0.426945
  O     -1.626814   -1.363151    2.286960
  C      2.579765    0.086924    0.076715
  C      3.098134    0.814555   -1.162787
  O      3.791396    1.794449   -1.090370
  O      2.758779    0.346579   -2.368437
  N      3.065473    0.671844    1.304874
  H      0.665414    1.092428    0.092457
  H      0.677659   -0.411740   -0.850285
  H      0.841274   -0.245522    2.201091
  H      0.855767   -1.747290    1.249260
  H     -1.064125   -1.766244    2.956361
  H      2.946906   -0.956361    0.028424
  H      2.203622   -0.439195   -2.407868
  H      2.774433    1.642810    1.351116
  H      4.078598    0.660990    1.310246

----------------------------
CARTESIAN COORDINATES (A.U.)
----------------------------
  NO LB      ZA    FRAG     MASS         X           Y           Z
   0 C     6.0000    0    12.011    1.976675    0.111772    0.139575
   1 C     6.0000    0    12.011    0.917513   -1.335494    2.389595
   2 C     6.0000    0    12.011   -1.933207   -1.379639    2.413727
   3 O     8.0000    0    15.999   -3.200325   -0.387218    0.806810
   4 O     8.0000    0    15.999   -3.074234   -2.575982    4.321728
   5 C     6.0000    0    12.011    4.875048    0.164262    0.144970
   6 C     6.0000    0    12.011    5.854624    1.539285   -2.197348
   7 O     8.0000    0    15.999    7.164700    3.391018   -2.060501
   8 O     8.0000    0    15.999    5.213336    0.654939   -4.475698
   9 N     7.0000    0    14.007    5.792904    1.269602    2.465854
  10 H     1.0000    0     1.008    1.257451    2.064390    0.174719
  11 H     1.0000    0     1.008    1.280589   -0.778075   -1.606807
  12 H     1.0000    0     1.008    1.589778   -0.463969    4.159458
  13 H     1.0000    0     1.008    1.617166   -3.301900    2.360758
  14 H     1.0000    0     1.008   -2.010905   -3.337718    5.586712
  15 H     1.0000    0     1.008    5.568845   -1.807260    0.053714
  16 H     1.0000    0     1.008    4.164242   -0.829959   -4.550211
  17 H     1.0000    0     1.008    5.242919    3.104461    2.553240
  18 H     1.0000    0     1.008    7.707434    1.249091    2.476006

--------------------------------
INTERNAL COORDINATES (ANGSTROEM)
--------------------------------
 C      0   0   0     0.000000000000     0.00000000     0.00000000
 C      1   0   0     1.522614191688     0.00000000     0.00000000
 C      2   1   0     1.508771041580   112.48588024     0.00000000
 O      3   2   1     1.203534502284   122.97759206     0.52612845
 O      3   2   1     1.335965148764   117.75069473   180.72144656
 C      1   2   3     1.534007362016   112.06745933   179.51975044
 C      6   1   2     1.527912709785   110.26258824   177.69098291
 O      7   6   1     1.202518391393   122.33019160   120.81487048
 O      7   6   1     1.337070229030   118.60156374   301.27344842
 N      6   1   2     1.444443785411   110.18904934   302.48012172
 H      1   2   3     1.101303348388   109.36013696    58.31015511
 H      1   2   3     1.100664946528   108.55356568   301.35740088
 H      2   1   3     1.102914095352   109.57140053   238.88345335
 H      2   1   3     1.104586474985   109.85593166   121.22921128
 H      5   3   2     0.962912888184   117.36485668     0.38584231
 H      6   1   2     1.107053567553   108.32687855    60.29335085
 H      9   7   6     0.962909402910   117.96089778   359.52167976
 H     10   6   1     1.014700454589   109.25625197   295.62384889
 H     10   6   1     1.013198137930   109.65806888   178.32365101

---------------------------
INTERNAL COORDINATES (A.U.)
---------------------------
 C      0   0   0     0.000000000000     0.00000000     0.00000000
 C      1   0   0     2.877323829912     0.00000000     0.00000000
 C      2   1   0     2.851164067378   112.48588024     0.00000000
 O      3   2   1     2.274350602041   122.97759206     0.52612845
 O      3   2   1     2.524608255626   117.75069473   180.72144656
 C      1   2   3     2.898853801629   112.06745933   179.51975044
 C      6   1   2     2.887336578031   110.26258824   177.69098291
 O      7   6   1     2.272430430736   122.33019160   120.81487048
 O      7   6   1     2.526696554685   118.60156374   301.27344842
 N      6   1   2     2.729603170271   110.18904934   302.48012172
 H      1   2   3     2.081161718823   109.36013696    58.31015511
 H      1   2   3     2.079955314146   108.55356568   301.35740088
 H      2   1   3     2.084205589457   109.57140053   238.88345335
 H      2   1   3     2.087365928955   109.85593166   121.22921128
 H      5   3   2     1.819641649491   117.36485668     0.38584231
 H      6   1   2     2.092028058256   108.32687855    60.29335085
 H      9   7   6     1.819635063277   117.96089778   359.52167976
 H     10   6   1     1.917505967138   109.25625197   295.62384889
 H     10   6   1     1.914667000087   109.65806888   178.32365101


Diagonalization of the overlap matrix:
Smallest eigenvalue                        ... 8.997e-004
Time for diagonalization                   ...    0.008 sec
Threshold for overlap eigenvalues          ... 1.000e-008
Number of eigenvalues below threshold      ... 0
Time for construction of square roots      ...    0.004 sec
Total time needed                          ...    0.012 sec

-------------------
DFT GRID GENERATION
-------------------

General Integration Accuracy     IntAcc      ...  4.340
Radial Grid Type                 RadialGrid  ... Gauss-Chebyshev
Angular Grid (max. acc.)         AngularGrid ... Lebedev-110
Angular grid pruning method      GridPruning ... 3 (G Style)
Weight generation scheme         WeightScheme... Becke
Basis function cutoff            BFCut       ...   1.0000e-011
Integration weight cutoff        WCut        ...   1.0000e-014
Grids for H and He will be reduced by one unit

# of grid points (after initial pruning)     ...  23992 (   0.0 sec)
# of grid points (after weights+screening)   ...  22153 (   0.1 sec)
nearest neighbour list constructed           ...    0.0 sec
Grid point re-assignment to atoms done       ...    0.0 sec
Grid point division into batches done        ...    0.0 sec
Reduced shell lists constructed in    0.1 sec

Total number of grid points                  ...    22153
Total number of batches                      ...      355
Average number of points per batch           ...       62
Average number of grid points per atom       ...     1166
Average number of shells per batch           ...    57.26 (65.81%)
Average number of basis functions per batch  ...   117.74 (63.64%)
Average number of large shells per batch     ...    43.26 (75.56%)
Average number of large basis fcns per batch ...    87.11 (73.99%)
Maximum spatial batch extension              ...  19.58, 22.28, 19.45 au
Average spatial batch extension              ...   3.75,  3.67,  3.66 au

Time for grid setup =    0.208 sec

--------------
SCF ITERATIONS
--------------
ITER       Energy         Delta-E        Max-DP      RMS-DP      [F,P]     Damp
               ***  Starting incremental Fock matrix formation  ***
  0   -550.6035365504   0.000000000000 0.01153575  0.00024934  0.0277705 0.7000
                      *** Initiating the SOSCF procedure ***
                      *** Re-Reading the Fockian *** 
                      *** Removing any level shift *** 
ITER      Energy       Delta-E        Grad      Rot      Max-DP    RMS-DP
  1   -550.60521983  -0.0016832754  0.001041  0.001041  0.033319  0.000705
               *** Restarting incremental Fock matrix formation ***
  2   -550.60942985  -0.0042100270  0.001189  0.001173  0.006302  0.000183
  3   -550.60946576  -0.0000359067  0.001307  0.001963  0.002890  0.000091
  4   -550.60953158  -0.0000658172  0.000666  0.001245  0.001740  0.000051
  5   -550.60953059   0.0000009844  0.000547  0.000553  0.001184  0.000026
  6   -550.60953939  -0.0000087965  0.000059  0.000070  0.000433  0.000009
  7   -550.60953948  -0.0000000876  0.000045  0.000040  0.000226  0.000005
  8   -550.60953968  -0.0000002076  0.000008  0.000019  0.000033  0.000001
  9   -550.60953968   0.0000000004  0.000008  0.000010  0.000024  0.000001
 10   -550.60953969  -0.0000000027  0.000003  0.000007  0.000008  0.000000
 11   -550.60953969   0.0000000006  0.000004  0.000004  0.000006  0.000000
                  ***Gradient check signals convergence***
              ***Rediagonalizing the Fockian in SOSCF/NRSCF***

               *****************************************************
               *                     SUCCESS                       *
               *           SCF CONVERGED AFTER  12 CYCLES          *
               *****************************************************

Setting up the final grid:

General Integration Accuracy     IntAcc      ...  4.670
Radial Grid Type                 RadialGrid  ... Gauss-Chebyshev
Angular Grid (max. acc.)         AngularGrid ... Lebedev-302
Angular grid pruning method      GridPruning ... 3 (G Style)
Weight generation scheme         WeightScheme... Becke
Basis function cutoff            BFCut       ...   1.0000e-011
Integration weight cutoff        WCut        ...   1.0000e-014
Grids for H and He will be reduced by one unit

# of grid points (after initial pruning)     ...  92666 (   0.0 sec)
# of grid points (after weights+screening)   ...  84170 (   0.2 sec)
nearest neighbour list constructed           ...    0.0 sec
Grid point re-assignment to atoms done       ...    0.0 sec
Grid point division into batches done        ...    0.2 sec
Reduced shell lists constructed in    0.6 sec

Total number of grid points                  ...    84170
Total number of batches                      ...     1327
Average number of points per batch           ...       63
Average number of grid points per atom       ...     4430
Average number of shells per batch           ...    52.54 (60.39%)
Average number of basis functions per batch  ...   107.05 (57.86%)
Average number of large shells per batch     ...    38.94 (74.12%)
[...]
     52      -0.032066  -0.005536   0.005877   0.088681  -0.004483   0.002331
     53      -0.149784  -0.000727   0.028836   0.278351   0.033939  -0.023404
     54       0.028594   0.002470  -0.013682   0.041249  -0.005869   0.003460
     55       0.067805  -0.002864  -0.066314   0.652836  -0.035451   0.031085
     56       0.147464   0.009586  -0.063705   0.210579   0.020852  -0.009582
                 48         49         50         51         52         53    
      0       0.002503  -0.004126   0.040543  -0.001398  -0.000439  -0.000115
      1      -0.007764   0.007395  -0.030591   0.034703   0.069564  -0.000010
      2      -0.002146  -0.004006   0.048377   0.020915   0.046389   0.000118
      3       0.000141   0.036601   0.004198  -0.013509   0.004849  -0.000066
      4       0.000651  -0.053988  -0.007367  -0.055064   0.030598   0.000025
      5       0.000267   0.031008   0.000942  -0.057578   0.027278   0.000060
      6       0.000017  -0.000996   0.000936   0.000170   0.000038   0.000097
      7      -0.000087  -0.001320  -0.000715   0.000013  -0.000161  -0.000019
      8       0.000011   0.001263   0.001295  -0.000782   0.000175  -0.000001
      9       0.000004  -0.000515  -0.000331   0.000360  -0.000134  -0.000035
     10       0.000018   0.000373   0.000359  -0.000430   0.000132   0.000010
     11       0.000027  -0.000741  -0.000706   0.000227  -0.000144  -0.000022
     12      -0.000049   0.000243  -0.000256   0.000055  -0.000057  -0.000021
     13      -0.000001   0.000212   0.000071   0.000154  -0.000048  -0.000002
     14       0.000008  -0.000250  -0.000113   0.000237  -0.000085   0.000011
     15      -0.028173  -0.000166   0.000184  -0.001633  -0.002299   0.000090
     16       0.077950   0.001255  -0.003929   0.004122   0.005736   0.001555
     17       0.005847   0.000480  -0.000350   0.000301   0.001031  -0.001864
     18       0.000186  -0.000095   0.000634   0.000195   0.000483   0.000033
     19       0.001451   0.000270   0.000068   0.000213   0.000603  -0.000045
     20       0.001332  -0.000181   0.001140   0.000371   0.000678  -0.000264
     21      -0.000555  -0.000028  -0.000003  -0.000100  -0.000243  -0.000139
     22      -0.000527  -0.000114   0.000101  -0.000124  -0.000330  -0.000039
     23      -0.000203   0.000034  -0.000227  -0.000056  -0.000101  -0.000177
     24       0.000129  -0.000012  -0.000397  -0.000106  -0.000283   0.000007
     25      -0.000228  -0.000045  -0.000018   0.000045   0.000008  -0.000035
     26      -0.000496   0.000079  -0.000221  -0.000113  -0.000101  -0.000092
     27       0.000697   0.000032  -0.000238  -0.000205   0.000016   0.026595
     28      -0.001406   0.000138  -0.000033  -0.000405  -0.000322   0.052763
     29       0.000036  -0.000113  -0.000303   0.000030  -0.000344   0.005522
     30      -0.032991   0.040721  -0.248606   0.122571   0.226484   0.000513
     31       0.090212  -0.104377   0.651686  -0.301809  -0.570882   0.001070
     32       0.000692  -0.004021   0.026112  -0.003806  -0.006108   0.000032
     33       0.005389   0.014233  -0.227965  -0.102709  -0.216051   0.000252
     34       0.005850   0.021657  -0.293232  -0.115916  -0.254182  -0.000579
     35       0.020670   0.040827  -0.594479  -0.249272  -0.548917  -0.001157
     36      -0.002313  -0.154625  -0.009273   0.288099  -0.131331   0.000451
     37      -0.002142  -0.189788  -0.012131   0.306206  -0.141021   0.000218
     38      -0.006124  -0.390750  -0.022950   0.686853  -0.320872  -0.000281
     39       0.000593  -0.273576  -0.036362  -0.128049   0.074168   0.000062
     40      -0.009650   0.831244   0.108515   0.363808  -0.225554  -0.000214
     41       0.002022   0.033521   0.002918   0.004250  -0.002187  -0.000016
     42       0.000221   0.001825   0.001451  -0.001981   0.001090   0.000138
     43       0.000180   0.000311   0.000059  -0.003609   0.001848   0.000086
     44       0.000024  -0.003590  -0.000716   0.000550   0.000089  -0.000078
     45       0.337686   0.003082  -0.018534   0.016602   0.028095   0.003603
     46      -0.929688  -0.014331   0.046850  -0.044040  -0.063927  -0.009752
     47      -0.067104  -0.000264   0.001882  -0.003037  -0.005081  -0.000830
     48      -0.003993   0.000402   0.001498  -0.000191  -0.000031   0.000566
     49       0.000663   0.000320  -0.004128  -0.002637  -0.004535   0.000825
     50      -0.003307  -0.000389  -0.002815  -0.001761  -0.003957   0.000340
     51      -0.002006   0.000318   0.001724  -0.001613  -0.003059   0.151591
     52       0.014531  -0.000253   0.000511   0.000164   0.000208  -0.829909
     53      -0.004923  -0.000624   0.001518  -0.000699  -0.001381  -0.001684
     54      -0.003031   0.000147   0.001023  -0.000448   0.000416  -0.524211
     55       0.000982  -0.000731   0.001002  -0.000102  -0.000831   0.088153
     56       0.004819   0.000433   0.000316  -0.000015  -0.000195  -0.045388
                  54         55         56    
      0      -0.000290   0.000257  -0.000200
      1       0.000176   0.000204   0.000055
      2       0.000062   0.000589  -0.000127
      3      -0.000042  -0.000109  -0.000122
      4      -0.000072  -0.000038  -0.000255
      5       0.000063  -0.000124   0.000457
      6       0.000003   0.000035  -0.002566
      7       0.000000  -0.000025   0.000378
      8       0.000000   0.000074  -0.000997
      9       0.000005  -0.000018   0.000716
     10       0.000007  -0.000001  -0.000397
     11      -0.000002  -0.000035   0.000842
     12       0.000015   0.000456  -0.042899
     13      -0.000003  -0.000191   0.018182
     14       0.000003   0.000428  -0.041388
     15       0.000901   0.000130   0.000012
     16      -0.001283   0.000413  -0.000031
     17      -0.001140   0.000163   0.000100
     18      -0.000087  -0.001485  -0.000017
     19       0.000102  -0.002259   0.000021
     20       0.000102   0.000951  -0.000027
     21       0.000029   0.000688  -0.000008
     22      -0.000072   0.001055  -0.000018
     23      -0.000003   0.000155   0.000010
     24       0.000072  -0.035242  -0.000380
     25       0.000094  -0.051063  -0.000542
     26      -0.000106   0.004469   0.000054
     27       0.065322   0.000024  -0.000013
     28      -0.044101  -0.000234  -0.000009
     29       0.005420   0.000155  -0.000032
     30      -0.000898  -0.000144   0.000285
     31      -0.000386  -0.001024  -0.000268
     32      -0.000323  -0.001216  -0.000262
     33       0.000118  -0.003175   0.000439
     34       0.000001  -0.000819   0.000524
     35      -0.000762  -0.002517   0.000245
     36      -0.000494   0.000770   0.000317
     37      -0.000589   0.000518  -0.001583
     38      -0.000234   0.000052   0.000656
     39       0.000030   0.000108   0.000300
     40       0.000332  -0.000228   0.000913
     41       0.000028   0.000329   0.001141
     42      -0.000101  -0.007489   0.703019
     43       0.000025   0.003057  -0.283533
     44      -0.000081  -0.006843   0.649124
     45      -0.005048   0.001301   0.000034
     46       0.008783  -0.000794   0.000086
     47       0.002058  -0.000092   0.000031
     48      -0.001347   0.565541   0.006094
     49      -0.002137   0.817330   0.008601
     50       0.000105  -0.090067  -0.001065
     51      -0.068470  -0.000204   0.000027
     52       0.521519   0.002050   0.000110
     53      -0.007541  -0.000440   0.000036
     54      -0.839188  -0.001592  -0.000172
     55       0.097680   0.000243  -0.000131
     56      -0.055982  -0.000680   0.000162


-----------
IR SPECTRUM
-----------

 Mode    freq (cm**-1)   T**2         TX         TY         TZ
-------------------------------------------------------------------
   6:        17.36   11.931513  (  1.374326  -2.914908  -1.243403)
   7:        47.11   10.892120  ( -2.815358   1.578143   0.689453)
   8:        69.79    2.228005  (  0.468992  -0.452635   1.342823)
   9:       101.48    5.568119  (  1.401482   1.047246  -1.583428)
  10:       126.20    2.560232  (  0.940141   1.053106  -0.753217)
  11:       203.55   47.247098  (  6.044866  -3.265660  -0.205320)
  12:       234.13    6.526998  (  0.712014   2.230496   1.022215)
  13:       260.57    1.681687  (  0.907767   0.582711  -0.719788)
  14:       316.53   26.312798  (  0.810934  -0.663588  -5.021438)
  15:       406.17   25.501994  (  4.756786  -1.052399   1.329449)
  16:       467.57   16.699960  ( -3.914135   0.566646  -1.028795)
  17:       479.97  121.809321  (  3.120055  -9.790861  -4.026614)
  18:       499.02   26.881860  ( -4.890880   1.587027   0.665207)
  19:       526.44    6.861174  ( -2.565168   0.431076   0.308640)
  20:       580.08   12.739982  ( -0.293940   3.204227   1.544834)
  21:       640.48   19.897435  (  4.172963   1.342475   0.825576)
  22:       689.60    6.374528  ( -0.352308  -2.499122  -0.069271)
  23:       745.69    1.769577  (  0.701553   0.096130   1.126126)
  24:       801.79    7.410390  ( -0.217189  -2.269315  -1.487760)
  25:       873.13   15.805913  ( -0.760505  -0.379363   3.883765)
  26:       917.80   98.324597  ( -0.177187  -2.338196   9.634627)
  27:       950.78   10.833845  ( -0.563432  -0.939071   3.103955)
  28:       980.35   69.199143  ( -0.026578  -1.766205  -8.128896)
  29:      1026.26    6.178476  (  0.601586   0.308869   2.391897)
  30:      1113.89    3.403077  (  1.025154   0.057122  -1.532603)
  31:      1125.07    4.924049  (  1.687350  -0.207502  -1.426128)
  32:      1156.73    0.409495  ( -0.410392  -0.482041  -0.093329)
  33:      1172.53    2.034012  (  0.178886  -1.348268   0.429168)
  34:      1204.88   13.368376  ( -2.113719  -1.276356  -2.696569)
  35:      1238.09   91.497804  ( -0.880203  -0.861607   9.485815)
  36:      1263.70   32.177779  ( -1.985447  -4.123690  -3.351262)
  37:      1285.94   53.248889  (  5.073688   4.659933  -2.406576)
  38:      1327.29   79.031079  (  1.405057   1.230623  -8.691517)
  39:      1341.77  419.609831  ( -6.127694  -1.498681  19.488847)
  40:      1376.07   90.346283  (  5.861836   6.537293   3.639912)
  41:      1413.97  101.368212  ( -5.849099  -1.611934   8.034794)
  42:      1422.09   97.885302  (  7.793439   3.915843  -4.670524)
  43:      1443.51    7.693984  ( -1.051443   1.262380  -2.234915)
  44:      1456.03   19.564957  ( -4.164494  -0.602666  -1.363357)
  45:      1650.83   25.722377  (  3.035564   3.946465   0.965994)
  46:      1923.44  296.450374  (-13.768031  -7.529765  -7.084796)
  47:      1925.00  224.546075  ( -2.098553  11.997806  -8.728963)
  48:      3025.90   17.219534  ( -1.370602   3.556847   1.640069)
  49:      3047.46   11.930290  ( -1.332791  -2.782887   1.552255)
  50:      3071.85   11.744283  (  0.612055  -1.496836   3.021449)
  51:      3106.05    2.602869  (  1.465553   0.651182   0.176023)
  52:      3126.23   14.828666  ( -1.215859   2.275845   2.858476)
  53:      3530.69    8.512722  ( -1.574215  -2.456471  -0.017876)
  54:      3609.57   10.531600  ( -2.458973   2.065780  -0.466480)
  55:      3858.78   57.802961  (  4.435569   6.135859   0.692761)
  56:      3865.42   64.741328  (  3.357495  -3.033274   6.653406)

The first frequency considered to be a vibration is 6
The total number of vibrations considered is 51


--------------------------
THERMOCHEMISTRY AT 298.15K
--------------------------

Temperature         ... 298.15 K
Pressure            ... 1.00 atm
Total Mass          ... 147.13 AMU

Throughout the following assumptions are being made:
  (1) The electronic state is orbitally nondegenerate
  (2) There are no thermally accessible electronically excited states
  (3) Hindered rotations indicated by low frequency modes are not
      treated as such but are treated as vibrations and this may
      cause some error
  (4) All equations used are the standard statistical mechanics
      equations for an ideal gas
  (5) All vibrations are strictly harmonic

freq.      17.36  E(vib)   ...       0.57 
freq.      47.11  E(vib)   ...       0.53 
freq.      69.79  E(vib)   ...       0.50 
freq.     101.48  E(vib)   ...       0.46 
freq.     126.20  E(vib)   ...       0.43 
freq.     203.55  E(vib)   ...       0.35 
freq.     234.13  E(vib)   ...       0.32 
freq.     260.57  E(vib)   ...       0.30 
freq.     316.53  E(vib)   ...       0.25 
freq.     406.17  E(vib)   ...       0.19 
freq.     467.57  E(vib)   ...       0.16 
freq.     479.97  E(vib)   ...       0.15 
freq.     499.02  E(vib)   ...       0.14 
freq.     526.44  E(vib)   ...       0.13 
freq.     580.08  E(vib)   ...       0.11 
freq.     640.48  E(vib)   ...       0.09 
freq.     689.60  E(vib)   ...       0.07 
freq.     745.69  E(vib)   ...       0.06 
freq.     801.79  E(vib)   ...       0.05 
freq.     873.13  E(vib)   ...       0.04 
freq.     917.80  E(vib)   ...       0.03 
freq.     950.78  E(vib)   ...       0.03 
freq.     980.35  E(vib)   ...       0.02 
freq.    1026.26  E(vib)   ...       0.02 
freq.    1113.89  E(vib)   ...       0.01 
freq.    1125.07  E(vib)   ...       0.01 
freq.    1156.73  E(vib)   ...       0.01 
freq.    1172.53  E(vib)   ...       0.01 
freq.    1204.88  E(vib)   ...       0.01 
freq.    1238.09  E(vib)   ...       0.01 
freq.    1263.70  E(vib)   ...       0.01 
freq.    1285.94  E(vib)   ...       0.01 
freq.    1327.29  E(vib)   ...       0.01 
freq.    1341.77  E(vib)   ...       0.01 
freq.    1376.07  E(vib)   ...       0.01 
freq.    1413.97  E(vib)   ...       0.00 
freq.    1422.09  E(vib)   ...       0.00 
freq.    1443.51  E(vib)   ...       0.00 
freq.    1456.03  E(vib)   ...       0.00 
freq.    1650.83  E(vib)   ...       0.00 
freq.    1923.44  E(vib)   ...       0.00 
freq.    1925.00  E(vib)   ...       0.00 
freq.    3025.90  E(vib)   ...       0.00 
freq.    3047.46  E(vib)   ...       0.00 
freq.    3071.85  E(vib)   ...       0.00 
freq.    3106.05  E(vib)   ...       0.00 
freq.    3126.23  E(vib)   ...       0.00 
freq.    3530.69  E(vib)   ...       0.00 
freq.    3609.57  E(vib)   ...       0.00 
freq.    3858.78  E(vib)   ...       0.00 
freq.    3865.42  E(vib)   ...       0.00 

------------
INNER ENERGY
------------

The inner energy is: U= E(el) + E(ZPE) + E(vib) + E(rot) + E(trans)
    E(el)   - is the total energy from the electronic structure calculation
              = E(kin-el) + E(nuc-el) + E(el-el) + E(nuc-nuc)
    E(ZPE)  - the the zero temperature vibrational energy from the frequency calculation
    E(vib)  - the the finite temperature correction to E(ZPE) due to population
              of excited vibrational states
    E(rot)  - is the rotational thermal energy
    E(trans)- is the translational thermal energy

Summary of contributions to the inner energy U:
Electronic energy                ...   -550.61371254 Eh
Zero point energy                ...      0.15273891 Eh      95.84 kcal/mol
Thermal vibrational correction   ...      0.00814288 Eh       5.11 kcal/mol
Thermal rotational correction    ...      0.00141627 Eh       0.89 kcal/mol
Thermal translational correction ...      0.00141627 Eh       0.89 kcal/mol
-----------------------------------------------------------------------
Total thermal energy                   -550.44999820 Eh


Summary of corrections to the electronic energy:
(perhaps to be used in another calculation)
Total thermal correction                  0.01097542 Eh       6.89 kcal/mol
Non-thermal (ZPE) correction              0.15273891 Eh      95.84 kcal/mol
-----------------------------------------------------------------------
Total correction                          0.16371434 Eh     102.73 kcal/mol


--------
ENTHALPY
--------

The enthalpy is H = U + kB*T
                kB is Boltzmann's constant
Total free energy                 ...   -550.44999820 Eh 
Thermal Enthalpy correction       ...      0.00094421 Eh       0.59 kcal/mol
-----------------------------------------------------------------------
Total Enthalpy                    ...   -550.44905399 Eh


Vibrational entropy computed according to the QRRHO of S. Grimme
Chem.Eur.J. 2012 18 9955

check  

-------
ENTROPY
-------

The entropy contributions are T*S = T*(S(el)+S(vib)+S(rot)+S(trans)
     S(el)   - electronic entropy
     S(vib)  - vibrational entropy
     S(rot)  - rotational entropy
     S(trans)- translational entropy
The entropies will be listed as mutliplied by the temperature to get
units of energy

Electronic entropy                ...      0.00000000 Eh      0.00 kcal/mol
Vibrational entropy               ...      0.01474194 Eh      9.25 kcal/mol
Rotational entropy                ...      0.01336571 Eh      8.39 kcal/mol
Translational entropy             ...      0.01941813 Eh     12.19 kcal/mol
-----------------------------------------------------------------------
Final entropy term                ...      0.04752578 Eh     29.82 kcal/mol


CAUTION: The rotational entropy is not quite correctly treated here
         because it includes a symmetry number that is not yet correctly
         implemented in ORCA!
For a nonlinear molecule the correct rotational entropy is:
    S(rot) = R*(ln(qrot/sn)+1.5)
    R    = 8.31441 J/mol/K = 1.987191683e-3 kcal/mol/K
    qrot = 940803.8973090
    sn is the rotational symmetry number. We have assumed 3 here
       if it is different for your molecule then you should correct
       the printed rotational entropy by manually evaluating the equation
       as given above

For convenience we print out the resulting values for sn=1 - 12:
 sn= 1  qrot/sn=  940803.8973 T*S(rot)=     9.04 kcal/mol T*S(tot)=    30.47 kcal/mol
 sn= 2  qrot/sn=  470401.9487 T*S(rot)=     8.63 kcal/mol T*S(tot)=    30.06 kcal/mol
 sn= 3  qrot/sn=  313601.2991 T*S(rot)=     8.39 kcal/mol T*S(tot)=    29.82 kcal/mol
 sn= 4  qrot/sn=  235200.9743 T*S(rot)=     8.22 kcal/mol T*S(tot)=    29.65 kcal/mol
 sn= 5  qrot/sn=  188160.7795 T*S(rot)=     8.08 kcal/mol T*S(tot)=    29.52 kcal/mol
 sn= 6  qrot/sn=  156800.6496 T*S(rot)=     7.98 kcal/mol T*S(tot)=    29.41 kcal/mol
 sn= 7  qrot/sn=  134400.5568 T*S(rot)=     7.89 kcal/mol T*S(tot)=    29.32 kcal/mol
 sn= 8  qrot/sn=  117600.4872 T*S(rot)=     7.81 kcal/mol T*S(tot)=    29.24 kcal/mol
 sn= 9  qrot/sn=  104533.7664 T*S(rot)=     7.74 kcal/mol T*S(tot)=    29.17 kcal/mol
 sn=10  qrot/sn=   94080.3897 T*S(rot)=     7.67 kcal/mol T*S(tot)=    29.11 kcal/mol
 sn=11  qrot/sn=   85527.6270 T*S(rot)=     7.62 kcal/mol T*S(tot)=    29.05 kcal/mol
 sn=12  qrot/sn=   78400.3248 T*S(rot)=     7.57 kcal/mol T*S(tot)=    29.00 kcal/mol


-------------------
GIBBS FREE ENTHALPY
-------------------

The Gibbs free enthalpy is G = H - T*S

Total enthalpy                    ...   -550.44905399 Eh 
Total entropy correction          ...     -0.04752578 Eh    -29.82 kcal/mol
-----------------------------------------------------------------------
Final Gibbs free enthalpy         ...   -550.49657977 Eh

For completeness - the Gibbs free enthalpy minus the electronic energy
G-E(el)                           ...      0.11713277 Eh     73.50 kcal/mol


Timings for individual modules:

Sum of individual times         ...     4197.398 sec (=  69.957 min)
GTO integral calculation        ...        5.303 sec (=   0.088 min)   0.1 %
SCF iterations                  ...      485.620 sec (=   8.094 min)  11.6 %
SCF Gradient evaluation         ...      260.965 sec (=   4.349 min)   6.2 %
Geometry relaxation             ...        4.023 sec (=   0.067 min)   0.1 %
Analytical frequency calculation...     3441.487 sec (=  57.358 min)  82.0 %
                             ****ORCA TERMINATED NORMALLY****
TOTAL RUN TIME: 0 days 1 hours 10 minutes 0 seconds 322 msec
