
                                 *****************
                                 * O   R   C   A *
                                 *****************

           --- An Ab Initio, DFT and Semiempirical electronic structure package ---

                  #######################################################
                  #                        -***-                        #
                  #  Department of molecular theory and spectroscopy    #
                  #              Directorship: Frank Neese              #
                  # Max Planck Institute for Chemical Energy Conversion #
                  #                  D-45470 Muelheim/Ruhr              #
                  #                       Germany                       #
                  #                                                     #
                  #                  All rights reserved                #
                  #                        -***-                        #
                  #######################################################


                         Program Version 4.0.0 -  RELEASE  -


 With contributions from (in alphabetic order):
   Daniel Aravena         : Magnetic Properties
   Michael Atanasov       : Ab Initio Ligand Field Theory
   Ute Becker             : Parallelization
   Martin Brehm           : Molecular dynamics
   Dmytro Bykov           : SCF Hessian
   Vijay G. Chilkuri      : MRCI spin determinant printing
   Dipayan Datta          : RHF DLPNO-CCSD density
   Achintya Kumar Dutta   : EOM-CC, STEOM-CC
   Dmitry Ganyushin       : Spin-Orbit,Spin-Spin,Magnetic field MRCI
   Yang Guo               : DLPNO-NEVPT2, CIM, IAO-localization
   Andreas Hansen         : Spin unrestricted coupled pair/coupled cluster methods
   Lee Huntington         : MR-EOM, pCC
   Robert Izsak           : Overlap fitted RIJCOSX, COSX-SCS-MP3, EOM
   Christian Kollmar      : KDIIS, OOCD, Brueckner-CCSD(T), CCSD density
   Simone Kossmann        : Meta GGA functionals, TD-DFT gradient, OOMP2, MP2 Hessian
   Martin Krupicka        : AUTO-CI
   Dagmar Lenk            : GEPOL surface
   Dimitrios Liakos       : Extrapolation schemes; parallel MDCI
   Dimitrios Manganas     : ROCIS; embedding schemes
   Dimitrios Pantazis     : SARC Basis sets
   Taras Petrenko         : DFT Hessian,TD-DFT gradient, ASA, ECA, R-Raman, ABS, FL, XAS/XES, NRVS
   Peter Pinski           : DLPNO-MP2
   Christoph Reimann      : Effective Core Potentials
   Marius Retegan         : Local ZFS, SOC
   Christoph Riplinger    : Optimizer, TS searches, QM/MM, DLPNO-CCSD(T), (RO)-DLPNO pert. Triples
   Tobias Risthaus        : Range-separated hybrids, TD-DFT gradient, RPA, STAB
   Michael Roemelt        : Restricted open shell CIS
   Masaaki Saitow         : Open-shell DLPNO
   Barbara Sandhoefer     : DKH picture change effects
   Kantharuban Sivalingam : CASSCF convergence, NEVPT2, FIC-MRCI
   Georgi Stoychev        : AutoAux
   Boris Wezisla          : Elementary symmetry handling
   Frank Wennmohs         : Technical directorship


 We gratefully acknowledge several colleagues who have allowed us to
 interface, adapt or use parts of their codes:
   Stefan Grimme, W. Hujo, H. Kruse,             : VdW corrections, initial TS optimization,
                  C. Bannwarth                     DFT functionals, gCP, sTDA/sTD-DF
   Ed Valeev                                     : LibInt (2-el integral package), F12 methods
   Garnet Chan, S. Sharma, J. Yang, R. Olivares  : DMRG
   Ulf Ekstrom                                   : XCFun DFT Library
   Mihaly Kallay                                 : mrcc  (arbitrary order and MRCC methods)
   Jiri Pittner, Ondrej Demel                    : Mk-CCSD
   Frank Weinhold                                : gennbo (NPA and NBO analysis)
   Christopher J. Cramer and Donald G. Truhlar   : smd solvation model


 Your calculation uses the libint2 library for the computation of 2-el integrals
 For citations please refer to: http://libint.valeyev.net

 This ORCA versions uses:
   CBLAS   interface :  Fast vector & matrix operations
   LAPACKE interface :  Fast linear algebra routines




*****************************************
The coordinations will be read from file: phenyl.xyz
*****************************************


Your calculation utilizes the basis: def2-SVP
   F. Weigend and R. Ahlrichs, Phys. Chem. Chem. Phys. 7, 3297 (2005).

================================================================================
                                        WARNINGS
                       Please study these warnings very carefully!
================================================================================

Warning: TCutStore was < 0. Adjusted to Thresh (uncritical)

WARNING: Geometry Optimization
  ===> : Switching off AutoStart
         For restart on a previous wavefunction, please use MOREAD

INFO   : the flag for use of LIBINT has been found!

================================================================================
                                       INPUT FILE
================================================================================
NAME = phenyl.inp
|  1> ! PBE0
|  2> ! opt anfreq
|  3> * xyzfile 0 1 phenyl.xyz **                         ****END OF INPUT****
================================================================================

                       *****************************
                       * Geometry Optimization Run *
                       *****************************

Geometry optimization settings:
Update method            Update   .... BFGS
Choice of coordinates    CoordSys .... Redundant Internals
Initial Hessian          InHess   .... Almoef's Model

Convergence Tolerances:
Energy Change            TolE     .... 5.0000e-006 Eh
Max. Gradient            TolMAXG  .... 3.0000e-004 Eh/bohr
RMS Gradient             TolRMSG  .... 1.0000e-004 Eh/bohr
Max. Displacement        TolMAXD  .... 4.0000e-003 bohr
RMS Displacement         TolRMSD  .... 2.0000e-003 bohr

------------------------------------------------------------------------------
                        ORCA OPTIMIZATION COORDINATE SETUP
------------------------------------------------------------------------------

The optimization will be done in new redundant internal coordinates
Making redundant internal coordinates   ...  (new redundants) done
Evaluating the initial hessian          ...  (Almloef) done
Evaluating the coordinates              ...  done
Calculating the B-matrix                .... done
Calculating the G-matrix                .... done
Diagonalizing the G-matrix              .... done
Small eigenvalue found = 9.600e-003
Small eigenvalue found = 2.965e-002
The first mode is                       ....   50
The number of degrees of freedom        ....   63

    -----------------------------------------------------------------
                    Redundant Internal Coordinates


    -----------------------------------------------------------------
         Definition                    Initial Value    Approx d2E/dq
    -----------------------------------------------------------------
      1. B(C   1,C   0)                  1.3953         0.612843   
      2. B(C   2,C   1)                  1.3977         0.607401   
      3. B(C   3,C   2)                  1.4072         0.586519   
      4. B(C   4,C   3)                  1.4114         0.577543   
      5. B(C   5,C   4)                  1.3984         0.605830   
      6. B(C   5,C   0)                  1.3955         0.612283   
      7. B(C   6,C   3)                  1.5197         0.388023   
      8. B(C   7,C   6)                  1.5503         0.346717   
      9. B(C   8,C   7)                  1.5349         0.366896   
     10. B(O   9,C   8)                  1.2220         1.037415   
     11. B(O  10,C   8)                  1.3503         0.647426   
     12. B(N  11,C   7)                  1.4683         0.419701   
     13. B(H  12,C   0)                  1.0823         0.370441   
     14. B(H  13,C   1)                  1.0824         0.370263   
     15. B(H  14,C   2)                  1.0834         0.368954   
     16. B(H  15,C   4)                  1.0795         0.374326   
     17. B(H  16,C   5)                  1.0824         0.370235   
     18. B(H  17,C   6)                  1.1125         0.331536   
     19. B(H  18,C   6)                  1.1130         0.330965   
     20. B(H  19,C   7)                  1.1087         0.336228   
     21. B(H  20,O  10)                  0.9600         0.519874   
     22. B(H  21,N  11)                  1.0469         0.377841   
     23. B(H  22,N  11)                  1.0463         0.378619   
     24. A(C   5,C   0,H  12)          120.0378         0.353854   
     25. A(C   1,C   0,C   5)          119.9090         0.432186   
     26. A(C   1,C   0,H  12)          120.0519         0.353908   
     27. A(C   2,C   1,H  13)          119.9709         0.353345   
     28. A(C   0,C   1,C   2)          120.0855         0.431565   
     29. A(C   0,C   1,H  13)          119.9436         0.353880   
     30. A(C   1,C   2,H  14)          118.9110         0.353134   
     31. A(C   1,C   2,C   3)          120.8172         0.428178   
     32. A(C   3,C   2,H  14)          120.2696         0.351050   
     33. A(C   2,C   3,C   6)          117.5018         0.395463   
     34. A(C   2,C   3,C   4)          118.4064         0.424330   
     35. A(C   4,C   3,C   6)          124.0561         0.394395   
     36. A(C   3,C   4,H  15)          121.8256         0.350993   
     37. A(C   3,C   4,C   5)          120.5375         0.426798   
     38. A(C   5,C   4,H  15)          117.6357         0.353844   
     39. A(C   0,C   5,C   4)          120.2252         0.431293   
     40. A(C   0,C   5,H  16)          119.8592         0.353820   
     41. A(C   4,C   5,H  16)          119.9153         0.353186   
     42. A(C   3,C   6,H  18)          109.6604         0.321859   
     43. A(C   7,C   6,H  17)          108.9698         0.316091   
     44. A(C   3,C   6,H  17)          104.7524         0.321950   
     45. A(H  17,C   6,H  18)          106.8173         0.283352   
     46. A(C   3,C   6,C   7)          119.0449         0.361084   
     47. A(C   7,C   6,H  18)          107.0127         0.316002   
     48. A(C   6,C   7,H  19)          109.9163         0.316814   
     49. A(C   8,C   7,N  11)          109.8172         0.367221   
     50. A(C   6,C   7,N  11)          107.7963         0.363681   
     51. A(C   6,C   7,C   8)          112.4566         0.357658   
     52. A(N  11,C   7,H  19)          106.2870         0.324923   
     53. A(C   8,C   7,H  19)          110.3489         0.319749   
     54. A(O   9,C   8,O  10)          117.4868         0.474106   
     55. A(C   7,C   8,O  10)          122.9982         0.395901   
     56. A(C   7,C   8,O   9)          119.5144         0.430463   
     57. A(C   8,O  10,H  20)          124.5484         0.372874   
     58. A(H  21,N  11,H  22)          109.2953         0.290596   
     59. A(C   7,N  11,H  22)          110.1390         0.328525   
     60. A(C   7,N  11,H  21)          110.8388         0.328414   
     61. D(H  13,C   1,C   0,H  12)      0.0136         0.025953   
     62. D(C   2,C   1,C   0,H  12)    179.9775         0.025953   
     63. D(H  13,C   1,C   0,C   5)   -179.5820         0.025953   
     64. D(C   2,C   1,C   0,C   5)      0.3819         0.025953   
     65. D(C   3,C   2,C   1,C   0)      0.6484         0.025468   
     66. D(H  14,C   2,C   1,H  13)      0.0781         0.025468   
     67. D(C   3,C   2,C   1,H  13)   -179.3877         0.025468   
     68. D(H  14,C   2,C   1,C   0)   -179.8857         0.025468   
     69. D(C   6,C   3,C   2,H  14)      1.0666         0.023660   
     70. D(C   6,C   3,C   2,C   1)   -179.4748         0.023660   
     71. D(C   4,C   3,C   2,H  14)    178.9813         0.023660   
     72. D(C   4,C   3,C   2,C   1)     -1.5601         0.023660   
     73. D(C   5,C   4,C   3,C   6)    179.2432         0.022908   
     74. D(H  15,C   4,C   3,C   2)   -178.1230         0.022908   
     75. D(C   5,C   4,C   3,C   2)      1.4758         0.022908   
     76. D(H  15,C   4,C   3,C   6)     -0.3557         0.022908   
     77. D(H  16,C   5,C   4,H  15)     -0.6854         0.025329   
     78. D(C   0,C   5,C   4,H  15)    179.1320         0.025329   
     79. D(C   0,C   5,C   4,C   3)     -0.4833         0.025329   
     80. D(H  16,C   5,C   0,H  12)     -0.2403         0.025903   
     81. D(C   4,C   5,C   0,H  12)    179.9422         0.025903   
     82. D(H  16,C   5,C   4,C   3)    179.6993         0.025329   
     83. D(C   4,C   5,C   0,C   1)     -0.4622         0.025903   
     84. D(H  16,C   5,C   0,C   1)    179.3553         0.025903   
     85. D(H  18,C   6,C   3,C   4)    138.0511         0.011208   
     86. D(H  18,C   6,C   3,C   2)    -44.1629         0.011208   
     87. D(H  17,C   6,C   3,C   4)   -107.6321         0.011208   
     88. D(H  17,C   6,C   3,C   2)     70.1539         0.011208   
     89. D(C   7,C   6,C   3,C   4)     14.4234         0.011208   
     90. D(C   7,C   6,C   3,C   2)   -167.7906         0.011208   
     91. D(C   8,C   7,C   6,C   3)     76.4608         0.009700   
     92. D(H  19,C   7,C   6,H  17)     73.0232         0.009700   
     93. D(H  19,C   7,C   6,C   3)    -46.9034         0.009700   
     94. D(N  11,C   7,C   6,H  18)     72.7400         0.009700   
     95. D(N  11,C   7,C   6,H  17)    -42.4177         0.009700   
     96. D(N  11,C   7,C   6,C   3)   -162.3443         0.009700   
     97. D(C   8,C   7,C   6,H  18)    -48.4548         0.009700   
     98. D(H  19,C   7,C   6,H  18)   -171.8191         0.009700   
     99. D(C   8,C   7,C   6,H  17)   -163.6125         0.009700   
    100. D(O  10,C   8,C   7,H  19)     60.8687         0.010093   
    101. D(O  10,C   8,C   7,N  11)    177.7148         0.010093   
    102. D(O  10,C   8,C   7,C   6)    -62.2536         0.010093   
    103. D(O   9,C   8,C   7,H  19)   -118.8536         0.010093   
    104. D(O   9,C   8,C   7,N  11)     -2.0075         0.010093   
    105. D(O   9,C   8,C   7,C   6)    118.0241         0.010093   
    106. D(H  20,O  10,C   8,O   9)    178.9653         0.030958   
    107. D(H  20,O  10,C   8,C   7)     -0.7623         0.030958   
    108. D(H  22,N  11,C   7,H  19)     58.4401         0.015020   
    109. D(H  22,N  11,C   7,C   8)    -60.9246         0.015020   
    110. D(H  22,N  11,C   7,C   6)    176.2481         0.015020   
    111. D(H  21,N  11,C   7,H  19)    179.5164         0.015020   
    112. D(H  21,N  11,C   7,C   8)     60.1517         0.015020   
    113. D(H  21,N  11,C   7,C   6)    -62.6756         0.015020   
    -----------------------------------------------------------------

Number of atoms                         .... 23
Number of degrees of freedom            .... 113

         *************************************************************
         *                GEOMETRY OPTIMIZATION CYCLE   1            *
         *************************************************************
---------------------------------
CARTESIAN COORDINATES (ANGSTROEM)
---------------------------------
  C     -1.557420    0.168940    0.354910
  C     -0.835880    1.309740    0.001780
  C      0.548250    1.235660   -0.177730
  C      1.231380    0.015540   -0.020000
  C      0.490300   -1.125090    0.356610
  C     -0.894160   -1.045350    0.536640
  C      2.737670    0.023550   -0.221060
  C      3.488260   -1.327670   -0.340550
  C      3.302350   -1.981960   -1.716520
  O      4.276450   -2.171410   -2.429580
  O      2.098940   -2.371920   -2.188840
  N      4.913890   -1.071950   -0.099480
  H     -2.629150    0.227000    0.494130
  H     -1.348850    2.253360   -0.132700
  H      1.089890    2.133560   -0.450000
  H      0.962450   -2.081620    0.521970
  H     -1.453290   -1.927570    0.820800
  H      3.137240    0.583090    0.653530
  H      2.991360    0.618200   -1.127000
  H      3.155890   -2.016580    0.462000
  H      1.271720   -2.285050   -1.709420
  H      5.305480   -0.429970   -0.827860
  H      5.447860   -1.971750   -0.108520

----------------------------
CARTESIAN COORDINATES (A.U.)
----------------------------
  NO LB      ZA    FRAG     MASS         X           Y           Z
   0 C     6.0000    0    12.011   -2.943097    0.319250    0.670683
   1 C     6.0000    0    12.011   -1.579584    2.475050    0.003364
   2 C     6.0000    0    12.011    1.036042    2.335059   -0.335861
   3 C     6.0000    0    12.011    2.326971    0.029366   -0.037795
   4 C     6.0000    0    12.011    0.926533   -2.126112    0.673895
   5 C     6.0000    0    12.011   -1.689718   -1.975425    1.014103
   6 C     6.0000    0    12.011    5.173447    0.044503   -0.417743
   7 C     6.0000    0    12.011    6.591856   -2.508933   -0.643546
   8 C     6.0000    0    12.011    6.240537   -3.745362   -3.243753
   9 O     8.0000    0    15.999    8.081319   -4.103370   -4.591241
  10 O     8.0000    0    15.999    3.966422   -4.482279   -4.136308
  11 N     7.0000    0    14.007    9.285906   -2.025692   -0.187990
  12 H     1.0000    0     1.008   -4.968373    0.428968    0.933770
  13 H     1.0000    0     1.008   -2.548957    4.258233   -0.250767
  14 H     1.0000    0     1.008    2.059594    4.031844   -0.850377
  15 H     1.0000    0     1.008    1.818767   -3.933692    0.986380
  16 H     1.0000    0     1.008   -2.746320   -3.642579    1.551087
  17 H     1.0000    0     1.008    5.928524    1.101880    1.234993
  18 H     1.0000    0     1.008    5.652851    1.168229   -2.129721
  19 H     1.0000    0     1.008    5.963768   -3.810784    0.873053
  20 H     1.0000    0     1.008    2.403203   -4.318119   -3.230336
  21 H     1.0000    0     1.008   10.025904   -0.812526   -1.564429
  22 H     1.0000    0     1.008   10.294963   -3.726068   -0.205073

--------------------------------
INTERNAL COORDINATES (ANGSTROEM)
--------------------------------
 C      0   0   0     0.000000000000     0.00000000     0.00000000
 C      1   0   0     1.395258187039     0.00000000     0.00000000
 C      2   1   0     1.397686496823   120.08547166     0.00000000
 C      3   2   1     1.407209353366   120.81722961     0.64844162
 C      4   3   2     1.411407614901   118.40639748   358.43985541
 C      1   2   3     1.395507013454   119.90902774     0.38192320
 C      4   3   2     1.519670637934   117.50176867   180.52515300
 C      7   4   3     1.550309226122   119.04493871   192.20936020
 C      8   7   4     1.534910868129   112.45658459    76.46084731
 O      9   8   7     1.221972453086   119.51441193   118.02410107
 O      9   8   7     1.350315004767   122.99818684   297.74641355
 N      8   7   4     1.468307992282   107.79630853   197.65565384
 H      1   2   3     1.082293104893   120.05192273   179.97753412
 H      2   1   3     1.082424036919   119.94358189   180.03610925
 H      3   2   1     1.083387858756   118.91102465   180.11426609
 H      5   4   3     1.079453191667   121.82564285   181.87697688
 H      6   1   2     1.082444174496   119.85922505   179.35532031
 H      7   4   3     1.112496680714   104.75237695    70.15393456
 H      7   4   3     1.112966541366   109.66037409   315.83711483
 H      8   7   4     1.108671866469   109.91629710   313.09661018
 H     11   9   8     0.960043156165   124.54841819   359.23767659
 H     12   8   7     1.046909008892   110.83883865   297.32444090
 H     12   8   7     1.046348757585   110.13899166   176.24814001

---------------------------
INTERNAL COORDINATES (A.U.)
---------------------------
 C      0   0   0     0.000000000000     0.00000000     0.00000000
 C      1   0   0     2.636655859616     0.00000000     0.00000000
 C      2   1   0     2.641244700074   120.08547166     0.00000000
 C      3   2   1     2.659240290954   120.81722961     0.64844162
 C      4   3   2     2.667173855494   118.40639748   358.43985541
 C      1   2   3     2.637126073395   119.90902774     0.38192320
 C      4   3   2     2.871761319457   117.50176867   180.52515300
 C      7   4   3     2.929659860263   119.04493871   192.20936020
 C      8   7   4     2.900561180743   112.45658459    76.46084731
 O      9   8   7     2.309193279528   119.51441193   118.02410107
 O      9   8   7     2.551725553535   122.99818684   297.74641355
 N      8   7   4     2.774699985661   107.79630853   197.65565384
 H      1   2   3     2.045237564880   120.05192273   179.97753412
 H      2   1   3     2.045484990550   119.94358189   180.03610925
 H      3   2   1     2.047306349864   118.91102465   180.11426609
 H      5   4   3     2.039870906638   121.82564285   181.87697688
 H      6   1   2     2.045523045056   119.85922505   179.35532031
 H      7   4   3     2.102314051446   104.75237695    70.15393456
 H      7   4   3     2.103201959399   109.66037409   315.83711483
 H      8   7   4     2.095086200010   109.91629710   313.09661018
 H     11   9   8     1.814218641898   124.54841819   359.23767659
 H     12   8   7     1.978371313942   110.83883865   297.32444090
 H     12   8   7     1.977312592405   110.13899166   176.24814001

---------------------
BASIS SET INFORMATION
---------------------
There are 4 groups of distinct atoms

 Group   1 Type C   : 7s4p1d contracted to 3s2p1d pattern {511/31/1}
 Group   2 Type O   : 7s4p1d contracted to 3s2p1d pattern {511/31/1}
 Group   3 Type N   : 7s4p1d contracted to 3s2p1d pattern {511/31/1}
 Group   4 Type H   : 4s1p contracted to 2s1p pattern {31/1}

Atom   0C    basis set group =>   1
Atom   1C    basis set group =>   1
Atom   2C    basis set group =>   1
Atom   3C    basis set group =>   1
Atom   4C    basis set group =>   1
Atom   5C    basis set group =>   1
Atom   6C    basis set group =>   1
Atom   7C    basis set group =>   1
Atom   8C    basis set group =>   1
Atom   9O    basis set group =>   2
Atom  10O    basis set group =>   2
Atom  11N    basis set group =>   3
Atom  12H    basis set group =>   4
Atom  13H    basis set group =>   4
Atom  14H    basis set group =>   4
Atom  15H    basis set group =>   4
Atom  16H    basis set group =>   4
Atom  17H    basis set group =>   4
Atom  18H    basis set group =>   4
Atom  19H    basis set group =>   4
Atom  20H    basis set group =>   4
Atom  21H    basis set group =>   4
Atom  22H    basis set group =>   4
-------------------------
ECP PARAMETER INFORMATION
-------------------------



------------------------------------------------------------------------------
                           ORCA GTO INTEGRAL CALCULATION
------------------------------------------------------------------------------

                         BASIS SET STATISTICS AND STARTUP INFO

 # of primitive gaussian shells          ...  199
 # of primitive gaussian functions       ...  365
 # of contracted shells                  ...  105
 # of contracted basis functions         ...  223
 Highest angular momentum                ...    2
 Maximum contraction depth               ...    5
 Integral package used                   ... LIBINT
 Integral threshhold            Thresh   ... 2.500e-011
 Primitive cut-off              TCut     ... 2.500e-012


------------------------------ INTEGRAL EVALUATION ----------------------------


 * One electron integrals 

   ECP integrals                          Pre-screening matrix                    ... done
 Shell pair data                         ... done (   0.002 sec)

Timings:
 Total evaluation time               ...     0.005 sec (   0.000 min)
 One electron matrix time            ...     0.024 sec (   0.000 min) =480.0%
 Schwartz matrix evaluation time     ...     0.127 sec (   0.002 min) =2540.0%

-------------------------------------------------------------------------------
                                 ORCA SCF
-------------------------------------------------------------------------------

------------
SCF SETTINGS
------------
Hamiltonian:
 Density Functional     Method          .... DFT(GTOs)
 Exchange Functional    Exchange        .... PBE
   PBE kappa parameter   XKappa         ....  0.804000
   PBE mue parameter    XMuePBE         ....  0.219520
 Correlation Functional Correlation     .... PBE
   PBE beta parameter  CBetaPBE         ....  0.066725
 LDA part of GGA corr.  LDAOpt          .... PW91-LDA
 Gradients option       PostSCFGGA      .... off
 Hybrid DFT is turned on
   Fraction HF Exchange ScalHFX         ....  0.250000
   Scaling of DF-GGA-X  ScalDFX         ....  0.750000
   Scaling of DF-GGA-C  ScalDFC         ....  1.000000
   Scaling of DF-LDA-C  ScalLDAC        ....  1.000000
   Perturbative correction              ....  0.000000
   NL short-range parameter             ....  6.900000


General Settings:
 Integral files         IntName         .... phenyl
 Hartree-Fock type      HFTyp           .... RHF
 Total Charge           Charge          ....    0
 Multiplicity           Mult            ....    1
 Number of Electrons    NEL             ....   88
 Basis Dimension        Dim             ....  223
 Nuclear Repulsion      ENuc            ....    672.9819583539 Eh

Convergence Acceleration:
 DIIS                   CNVDIIS         .... on
   Start iteration      DIISMaxIt       ....    12
   Startup error        DIISStart       ....  0.200000
   # of expansion vecs  DIISMaxEq       ....     5
   Bias factor          DIISBfac        ....   1.050
   Max. coefficient     DIISMaxC        ....  10.000
 Newton-Raphson         CNVNR           .... off
 SOSCF                  CNVSOSCF        .... on
   Start iteration      SOSCFMaxIt      ....   150
   Startup grad/error   SOSCFStart      ....  0.003300
 Level Shifting         CNVShift        .... on
   Level shift para.    LevelShift      ....    0.2500
   Turn off err/grad.   ShiftErr        ....    0.0010
 Zerner damping         CNVZerner       .... off
 Static damping         CNVDamp         .... on
   Fraction old density DampFac         ....    0.7000
   Max. Damping (<1)    DampMax         ....    0.9800
   Min. Damping (>=0)   DampMin         ....    0.0000
   Turn off err/grad.   DampErr         ....    0.1000
 Fernandez-Rico         CNVRico         .... off

SCF Procedure:
 Maximum # iterations   MaxIter         ....   125
 SCF integral mode      SCFMode         .... Direct
   Integral package                     .... LIBINT
 Reset frequeny         DirectResetFreq ....    20
 Integral Threshold     Thresh          .... 2.500e-011 Eh
 Primitive CutOff       TCut            .... 2.500e-012 Eh

Convergence Tolerance:
 Convergence Check Mode ConvCheckMode   .... Total+1el-Energy
 Convergence forced     ConvForced      .... 0
 Energy Change          TolE            .... 1.000e-008 Eh
 1-El. energy change                    .... 1.000e-005 Eh
 Orbital Gradient       TolG            .... 1.000e-005
 Orbital Rotation angle TolX            .... 1.000e-005
 DIIS Error             TolErr          .... 5.000e-007


Diagonalization of the overlap matrix:
Smallest eigenvalue                        ... 2.971e-004
Time for diagonalization                   ...    0.010 sec
Threshold for overlap eigenvalues          ... 1.000e-008
Number of eigenvalues below threshold      ... 0
Time for construction of square roots      ...    0.005 sec
Total time needed                          ...    0.015 sec

-------------------
DFT GRID GENERATION
-------------------

General Integration Accuracy     IntAcc      ...  4.340
Radial Grid Type                 RadialGrid  ... Gauss-Chebyshev
Angular Grid (max. acc.)         AngularGrid ... Lebedev-110
Angular grid pruning method      GridPruning ... 3 (G Style)
Weight generation scheme         WeightScheme... Becke
Basis function cutoff            BFCut       ...   1.0000e-011
Integration weight cutoff        WCut        ...   1.0000e-014
Grids for H and He will be reduced by one unit

# of grid points (after initial pruning)     ...  28772 (   0.0 sec)
# of grid points (after weights+screening)   ...  26264 (   0.1 sec)
nearest neighbour list constructed           ...    0.0 sec
Grid point re-assignment to atoms done       ...    0.0 sec
Grid point division into batches done        ...    0.0 sec
Reduced shell lists constructed in    0.2 sec

Total number of grid points                  ...    26264
Total number of batches                      ...      425
Average number of points per batch           ...       61
Average number of grid points per atom       ...     1142
Average number of shells per batch           ...    66.73 (63.56%)
Average number of basis functions per batch  ...   136.56 (61.24%)
Average number of large shells per batch     ...    49.35 (73.95%)
Average number of large basis fcns per batch ...    99.57 (72.92%)
Maximum spatial batch extension              ...  17.30, 20.19, 31.36 au
Average spatial batch extension              ...   3.14,  3.67,  3.78 au

Time for grid setup =    0.273 sec

------------------------------
INITIAL GUESS: MODEL POTENTIAL
------------------------------
Loading Hartree-Fock densities                     ... done
Calculating cut-offs                               ... done
Setting up the integral package                    ... done
Initializing the effective Hamiltonian             ... done
Starting the Coulomb interaction                   ... done (   0.1 sec)
Reading the grid                                   ... done
Mapping shells                                     ... done
Starting the XC term evaluation                    ... done (   0.2 sec)
  promolecular density results
     # of electrons  =     87.997835960
     EX              =    -72.080787251
     EC              =     -2.929505177
     EX+EC           =    -75.010292428
Transforming the Hamiltonian                       ... done (   0.0 sec)
Diagonalizing the Hamiltonian                      ... done (   0.0 sec)
Back transforming the eigenvectors                 ... done (   0.0 sec)
Now organizing SCF variables                       ... done
                      ------------------
                      INITIAL GUESS DONE (   0.7 sec)
                      ------------------
--------------
SCF ITERATIONS
--------------
ITER       Energy         Delta-E        Max-DP      RMS-DP      [F,P]     Damp
               ***  Starting incremental Fock matrix formation  ***
  0   -553.4223475579   0.000000000000 0.10202066  0.00236945  0.2563935 0.7000
  1   -553.5733794268  -0.151031868838 0.06895985  0.00155650  0.1056537 0.7000
                               ***Turning on DIIS***
  2   -553.6313792113  -0.057999784490 0.06406031  0.00245459  0.0358318 0.0000
  3   -553.7259848789  -0.094605667628 0.05958680  0.00105304  0.0583961 0.0000
  4   -553.7446320864  -0.018647207456 0.01386302  0.00029761  0.0145859 0.0000
  5   -553.7458824777  -0.001250391344 0.00433399  0.00009323  0.0056652 0.0000
                      *** Initiating the SOSCF procedure ***
                           *** Shutting down DIIS ***
                      *** Re-Reading the Fockian *** 
                      *** Removing any level shift *** 
ITER      Energy       Delta-E        Grad      Rot      Max-DP    RMS-DP
  6   -553.74595389  -0.0000714146  0.000310  0.000310  0.001010  0.000033
               *** Restarting incremental Fock matrix formation ***
  7   -553.74596024  -0.0000063438  0.000158  0.000422  0.000672  0.000021
  8   -553.74595994   0.0000002927  0.000357  0.000452  0.000499  0.000010
  9   -553.74596150  -0.0000015614  0.000069  0.000145  0.000172  0.000005
 10   -553.74596144   0.0000000636  0.000085  0.000085  0.000117  0.000003
 11   -553.74596156  -0.0000001175  0.000007  0.000030  0.000042  0.000001
 12   -553.74596156   0.0000000018  0.000012  0.000021  0.000020  0.000001
                  ***Gradient check signals convergence***
              ***Rediagonalizing the Fockian in SOSCF/NRSCF***

               *****************************************************
               *                     SUCCESS                       *
               *           SCF CONVERGED AFTER  13 CYCLES          *
               *****************************************************

Setting up the final grid:

General Integration Accuracy     IntAcc      ...  4.670
Radial Grid Type                 RadialGrid  ... Gauss-Chebyshev
Angular Grid (max. acc.)         AngularGrid ... Lebedev-302
Angular grid pruning method      GridPruning ... 3 (G Style)
Weight generation scheme         WeightScheme... Becke
Basis function cutoff            BFCut       ...   1.0000e-011
Integration weight cutoff        WCut        ...   1.0000e-014
Grids for H and He will be reduced by one unit

# of grid points (after initial pruning)     ... 111878 (   0.0 sec)
# of grid points (after weights+screening)   ... 100095 (   0.3 sec)
nearest neighbour list constructed           ...    0.0 sec
Grid point re-assignment to atoms done       ...    0.0 sec
Grid point division into batches done        ...    0.3 sec
Reduced shell lists constructed in    1.1 sec

Total number of grid points                  ...   100095
Total number of batches                      ...     1576
Average number of points per batch           ...       63
Average number of grid points per atom       ...     4352
Average number of shells per batch           ...    61.01 (58.10%)
Average number of basis functions per batch  ...   123.92 (55.57%)
Average number of large shells per batch     ...    44.21 (72.47%)
Average number of large basis fcns per batch ...    88.42 (71.35%)
Maximum spatial batch extension              ...  17.89, 19.96, 20.27 au
Average spatial batch extension              ...   2.19,  2.35,  2.41 au

Final grid set up in    1.5 sec
Final integration                            ... done (   1.3 sec)
Change in XC energy                          ...     0.000450295
Integrated number of electrons               ...    87.999956508
Previous integrated no of electrons          ...    88.002460567

----------------
TOTAL SCF ENERGY
----------------

Total Energy       :         -553.74551127 Eh          -15068.18141 eV

Components:
Nuclear Repulsion  :          672.98195835 Eh           18312.77009 eV
Electronic Energy  :        -1226.72746962 Eh          -33380.95150 eV
One Electron Energy:        -2086.83528592 Eh          -56785.67506 eV
Two Electron Energy:          860.10781630 Eh           23404.72355 eV

Virial components:
Potential Energy   :        -1102.02411241 Eh          -29987.60064 eV
Kinetic Energy     :          548.27860114 Eh           14919.41923 eV
Virial Ratio       :            2.00997104


DFT components:
N(Alpha)           :       43.999978254209 electrons
N(Beta)            :       43.999978254209 electrons
N(Total)           :       87.999956508417 electrons
E(X)               :      -54.959847616830 Eh       
E(C)               :       -2.954407925384 Eh       
E(XC)              :      -57.914255542213 Eh       

---------------
SCF CONVERGENCE
---------------

  Last Energy change         ...  -3.5579e-009  Tolerance :  1.0000e-008
  Last MAX-Density change    ...   5.3173e-006  Tolerance :  1.0000e-007
  Last RMS-Density change    ...   1.8962e-007  Tolerance :  5.0000e-009
  Last Orbital Gradient      ...   1.9876e-006  Tolerance :  1.0000e-005
  Last Orbital Rotation      ...   5.8754e-006  Tolerance :  1.0000e-005

             **** THE GBW FILE WAS UPDATED (phenyl.gbw) ****
             **** DENSITY FILE WAS UPDATED (phenyl.scfp.tmp) ****
             **** ENERGY FILE WAS UPDATED (phenyl.en.tmp) ****
----------------
ORBITAL ENERGIES
----------------

  NO   OCC          E(Eh)            E(eV) 
   0   2.0000     -19.251292      -523.8543 
   1   2.0000     -19.189429      -522.1709 
   2   2.0000     -14.376989      -391.2178 
   3   2.0000     -10.361167      -281.9417 
   4   2.0000     -10.289035      -279.9789 
   5   2.0000     -10.268467      -279.4192 
   6   2.0000     -10.260326      -279.1977 
   7   2.0000     -10.256938      -279.1055 
   8   2.0000     -10.255077      -279.0548 
   9   2.0000     -10.253334      -279.0074 
  10   2.0000     -10.251345      -278.9533 
  11   2.0000     -10.250028      -278.9174 
  12   2.0000      -1.110331       -30.2136 
  13   2.0000      -1.022962       -27.8362 
  14   2.0000      -0.905555       -24.6414 
  15   2.0000      -0.888440       -24.1757 
  16   2.0000      -0.807674       -21.9779 
  17   2.0000      -0.777908       -21.1680 
  18   2.0000      -0.741174       -20.1684 
  19   2.0000      -0.681702       -18.5501 
  20   2.0000      -0.649499       -17.6738 
  21   2.0000      -0.630678       -17.1616 
  22   2.0000      -0.610595       -16.6151 
  23   2.0000      -0.550435       -14.9781 
  24   2.0000      -0.548287       -14.9196 
  25   2.0000      -0.505094       -13.7443 
  26   2.0000      -0.492246       -13.3947 
  27   2.0000      -0.477789       -13.0013 
  28   2.0000      -0.463770       -12.6198 
  29   2.0000      -0.458060       -12.4644 
  30   2.0000      -0.450025       -12.2458 
  31   2.0000      -0.438597       -11.9348 
  32   2.0000      -0.431738       -11.7482 
  33   2.0000      -0.415005       -11.2929 
  34   2.0000      -0.399131       -10.8609 
  35   2.0000      -0.385923       -10.5015 
  36   2.0000      -0.379725       -10.3328 
  37   2.0000      -0.366476        -9.9723 
  38   2.0000      -0.360662        -9.8141 
  39   2.0000      -0.325911        -8.8685 
  40   2.0000      -0.286523        -7.7967 
  41   2.0000      -0.281794        -7.6680 
  42   2.0000      -0.269702        -7.3390 
  43   2.0000      -0.254049        -6.9130 
  44   0.0000      -0.024540        -0.6678 
  45   0.0000      -0.020266        -0.5515 
  46   0.0000       0.010175         0.2769 
  47   0.0000       0.058291         1.5862 
  48   0.0000       0.069400         1.8885 
  49   0.0000       0.076630         2.0852 
  50   0.0000       0.086935         2.3656 
  51   0.0000       0.102648         2.7932 
  52   0.0000       0.116726         3.1763 
  53   0.0000       0.121796         3.3142 
  54   0.0000       0.133101         3.6219 
  55   0.0000       0.142238         3.8705 
  56   0.0000       0.162570         4.4237 
  57   0.0000       0.165443         4.5019 
  58   0.0000       0.180100         4.9008 
  59   0.0000       0.208046         5.6612 
  60   0.0000       0.215937         5.8759 
  61   0.0000       0.239892         6.5278 
  62   0.0000       0.244169         6.6442 
  63   0.0000       0.285192         7.7605 
  64   0.0000       0.298509         8.1228 
  65   0.0000       0.307072         8.3558 
  66   0.0000       0.318795         8.6748 
  67   0.0000       0.339520         9.2388 
  68   0.0000       0.365828         9.9547 
  69   0.0000       0.380478        10.3533 
  70   0.0000       0.400750        10.9050 
  71   0.0000       0.422844        11.5062 
  72   0.0000       0.429890        11.6979 
  73   0.0000       0.435895        11.8613 
  74   0.0000       0.445675        12.1274 
  75   0.0000       0.463608        12.6154 
  76   0.0000       0.476464        12.9652 
  77   0.0000       0.489327        13.3153 
  78   0.0000       0.496886        13.5209 
  79   0.0000       0.508244        13.8300 
  80   0.0000       0.535105        14.5609 
  81   0.0000       0.547622        14.9015 
  82   0.0000       0.559202        15.2167 
  83   0.0000       0.561587        15.2816 
  84   0.0000       0.585645        15.9362 
  85   0.0000       0.589383        16.0379 
  86   0.0000       0.602678        16.3997 
  87   0.0000       0.613761        16.7013 
  88   0.0000       0.618084        16.8189 
  89   0.0000       0.633309        17.2332 
  90   0.0000       0.638715        17.3803 
  91   0.0000       0.650373        17.6975 
  92   0.0000       0.658423        17.9166 
  93   0.0000       0.664533        18.0829 
  94   0.0000       0.670711        18.2510 
  95   0.0000       0.678288        18.4572 
  96   0.0000       0.685658        18.6577 
  97   0.0000       0.698617        19.0103 
  98   0.0000       0.713267        19.4090 
  99   0.0000       0.718047        19.5390 
 100   0.0000       0.725274        19.7357 
 101   0.0000       0.729761        19.8578 
 102   0.0000       0.747132        20.3305 
 103   0.0000       0.755893        20.5689 
 104   0.0000       0.763518        20.7764 
 105   0.0000       0.783373        21.3167 
 106   0.0000       0.801929        21.8216 
 107   0.0000       0.825202        22.4549 
 108   0.0000       0.833164        22.6715 
 109   0.0000       0.848346        23.0847 
 110   0.0000       0.865560        23.5531 
 111   0.0000       0.913622        24.8609 
 112   0.0000       0.931718        25.3533 
 113   0.0000       0.962841        26.2002 
 114   0.0000       0.981520        26.7085 
 115   0.0000       1.017205        27.6796 
 116   0.0000       1.027471        27.9589 
 117   0.0000       1.061954        28.8972 
 118   0.0000       1.080247        29.3950 
 119   0.0000       1.096020        29.8242 
 120   0.0000       1.102875        30.0107 
 121   0.0000       1.110923        30.2298 
 122   0.0000       1.193599        32.4795 
 123   0.0000       1.196305        32.5531 
 124   0.0000       1.233981        33.5783 
 125   0.0000       1.241865        33.7929 
 126   0.0000       1.267464        34.4894 
 127   0.0000       1.268777        34.5252 
 128   0.0000       1.283992        34.9392 
 129   0.0000       1.284408        34.9505 
 130   0.0000       1.295297        35.2468 
 131   0.0000       1.302308        35.4376 
 132   0.0000       1.319581        35.9076 
 133   0.0000       1.376814        37.4650 
 134   0.0000       1.394074        37.9347 
 135   0.0000       1.439032        39.1580 
 136   0.0000       1.457193        39.6522 
 137   0.0000       1.499371        40.7999 
 138   0.0000       1.530512        41.6474 
 139   0.0000       1.569705        42.7138 
 140   0.0000       1.608712        43.7753 
 141   0.0000       1.647498        44.8307 
 142   0.0000       1.664434        45.2915 
 143   0.0000       1.666607        45.3507 
 144   0.0000       1.677838        45.6563 
 145   0.0000       1.705189        46.4005 
 146   0.0000       1.713410        46.6243 
 147   0.0000       1.729744        47.0687 
 148   0.0000       1.736083        47.2412 
 149   0.0000       1.745928        47.5091 
 150   0.0000       1.753286        47.7093 
 151   0.0000       1.755179        47.7608 
 152   0.0000       1.763610        47.9903 
 153   0.0000       1.775985        48.3270 
 154   0.0000       1.782132        48.4943 
 155   0.0000       1.791164        48.7401 
 156   0.0000       1.826601        49.7043 
 157   0.0000       1.830390        49.8074 
 158   0.0000       1.846790        50.2537 
 159   0.0000       1.874312        51.0026 
 160   0.0000       1.877686        51.0944 
 161   0.0000       1.899774        51.6955 
 162   0.0000       1.940350        52.7996 
 163   0.0000       1.947995        53.0077 
 164   0.0000       1.954513        53.1850 
 165   0.0000       1.978596        53.8403 
 166   0.0000       1.983419        53.9716 
 167   0.0000       1.995841        54.3096 
 168   0.0000       2.003802        54.5262 
 169   0.0000       2.024621        55.0927 
 170   0.0000       2.053569        55.8804 
 171   0.0000       2.071272        56.3622 
 172   0.0000       2.116743        57.5995 
 173   0.0000       2.122348        57.7520 
 174   0.0000       2.139921        58.2302 
 175   0.0000       2.152522        58.5731 
 176   0.0000       2.166239        58.9464 
 177   0.0000       2.189899        59.5902 
 178   0.0000       2.215354        60.2828 
 179   0.0000       2.263850        61.6025 
 180   0.0000       2.276114        61.9362 
 181   0.0000       2.296611        62.4940 
 182   0.0000       2.300736        62.6062 
 183   0.0000       2.324514        63.2533 
 184   0.0000       2.340382        63.6850 
 185   0.0000       2.346028        63.8387 
 186   0.0000       2.361783        64.2674 
 187   0.0000       2.397535        65.2402 
 188   0.0000       2.428105        66.0721 
 189   0.0000       2.492093        67.8133 
 190   0.0000       2.509405        68.2844 
 191   0.0000       2.530723        68.8645 
 192   0.0000       2.585629        70.3585 
 193   0.0000       2.620980        71.3205 
 194   0.0000       2.630650        71.5836 
 195   0.0000       2.643305        71.9280 
 196   0.0000       2.661595        72.4257 
 197   0.0000       2.732152        74.3456 
 198   0.0000       2.755195        74.9727 
 199   0.0000       2.756575        75.0102 
 200   0.0000       2.764674        75.2306 
 201   0.0000       2.794398        76.0394 
 202   0.0000       2.811746        76.5115 
 203   0.0000       2.840600        77.2967 
 204   0.0000       2.859157        77.8016 
 205   0.0000       2.890768        78.6618 
 206   0.0000       2.893978        78.7491 
 207   0.0000       2.911464        79.2250 
 208   0.0000       2.952480        80.3411 
 209   0.0000       2.970104        80.8206 
 210   0.0000       3.036413        82.6250 
 211   0.0000       3.064776        83.3968 
 212   0.0000       3.090442        84.0952 
 213   0.0000       3.135912        85.3325 
 214   0.0000       3.175494        86.4096 
 215   0.0000       3.229261        87.8727 
 216   0.0000       3.264654        88.8358 
 217   0.0000       3.301447        89.8369 
 218   0.0000       3.381641        92.0191 
 219   0.0000       3.519527        95.7712 
 220   0.0000       3.631926        98.8297 
 221   0.0000       3.651244        99.3554 
 222   0.0000       3.860066       105.0377 

                    ********************************
                    * MULLIKEN POPULATION ANALYSIS *
                    ********************************

-----------------------
MULLIKEN ATOMIC CHARGES
-----------------------
   0 C :   -0.014215
   1 C :   -0.006246
   2 C :   -0.022014
   3 C :   -0.070037
   4 C :   -0.087249
   5 C :   -0.003695
   6 C :    0.042922
   7 C :   -0.115185
   8 C :    0.227567
   9 O :   -0.244700
  10 O :   -0.203385
  11 N :   -0.249231
  12 H :    0.025237
  13 H :    0.022061
  14 H :    0.011803
  15 H :    0.006191
  16 H :    0.020515
  17 H :    0.084981
  18 H :    0.057357
  19 H :    0.069268
  20 H :    0.188883
  21 H :    0.129392
  22 H :    0.129780
Sum of atomic charges:   -0.0000000

--------------------------------
MULLIKEN REDUCED ORBITAL CHARGES
--------------------------------
  0 C s       :     3.152663  s :     3.152663
      pz      :     0.988351  p :     2.826755
      px      :     0.878755
      py      :     0.959649
      dz2     :     0.003017  d :     0.034797
      dxz     :     0.002963
      dyz     :     0.006341
      dx2y2   :     0.012463
      dxy     :     0.010013
  1 C s       :     3.153967  s :     3.153967
      pz      :     0.969035  p :     2.817114
      px      :     0.945757
      py      :     0.902322
      dz2     :     0.003062  d :     0.035165
      dxz     :     0.006143
      dyz     :     0.003545
      dx2y2   :     0.010666
      dxy     :     0.011749
  2 C s       :     3.209356  s :     3.209356
      pz      :     0.983595  p :     2.779044
      px      :     0.905788
      py      :     0.889661
      dz2     :     0.002581  d :     0.033613
      dxz     :     0.005462
      dyz     :     0.003778
      dx2y2   :     0.010084
      dxy     :     0.011707
  3 C s       :     3.058555  s :     3.058555
      pz      :     0.983038  p :     2.968738
      px      :     1.012658
      py      :     0.973042
      dz2     :     0.003657  d :     0.042744
      dxz     :     0.007032
      dyz     :     0.006637
      dx2y2   :     0.012889
      dxy     :     0.012529
  4 C s       :     3.217578  s :     3.217578
      pz      :     1.027672  p :     2.835850
      px      :     0.920543
      py      :     0.887635
      dz2     :     0.003110  d :     0.033820
      dxz     :     0.005964
      dyz     :     0.003165
      dx2y2   :     0.010344
      dxy     :     0.011237
  5 C s       :     3.153535  s :     3.153535
      pz      :     0.967136  p :     2.814973
      px      :     0.942647
      py      :     0.905190
      dz2     :     0.002610  d :     0.035187
      dxz     :     0.005999
      dyz     :     0.004110
      dx2y2   :     0.010570
      dxy     :     0.011898
  6 C s       :     3.009961  s :     3.009961
      pz      :     1.023515  p :     2.914387
      px      :     0.914031
      py      :     0.976842
      dz2     :     0.005218  d :     0.032731
      dxz     :     0.005267
      dyz     :     0.007920
      dx2y2   :     0.008001
      dxy     :     0.006326
  7 C s       :     3.107468  s :     3.107468
      pz      :     1.003582  p :     2.951489
      px      :     0.902114
      py      :     1.045794
      dz2     :     0.009648  d :     0.056227
      dxz     :     0.011921
      dyz     :     0.011266
      dx2y2   :     0.012014
      dxy     :     0.011378
  8 C s       :     3.063593  s :     3.063593
      pz      :     0.953164  p :     2.577848
      px      :     0.813961
      py      :     0.810722
      dz2     :     0.030294  d :     0.130992
      dxz     :     0.032651
      dyz     :     0.011996
      dx2y2   :     0.026844
      dxy     :     0.029208
  9 O s       :     3.764057  s :     3.764057
      pz      :     1.551825  p :     4.462677
      px      :     1.469352
      py      :     1.441500
      dz2     :     0.002988  d :     0.017965
      dxz     :     0.005991
      dyz     :     0.001991
      dx2y2   :     0.003290
      dxy     :     0.003706
 10 O s       :     3.665755  s :     3.665755
      pz      :     1.645077  p :     4.525885
      px      :     1.134916
      py      :     1.745892
      dz2     :     0.001341  d :     0.011745
      dxz     :     0.005111
      dyz     :     0.001547
      dx2y2   :     0.001844
      dxy     :     0.001901
 11 N s       :     3.443783  s :     3.443783
      pz      :     1.581421  p :     3.788027
      px      :     1.031951
      py      :     1.174655
      dz2     :     0.003088  d :     0.017421
      dxz     :     0.003521
      dyz     :     0.002766
      dx2y2   :     0.003514
      dxy     :     0.004531
 12 H s       :     0.950873  s :     0.950873
      pz      :     0.005040  p :     0.023890
      px      :     0.015364
      py      :     0.003486
 13 H s       :     0.954086  s :     0.954086
      pz      :     0.004879  p :     0.023853
      px      :     0.006187
      py      :     0.012787
 14 H s       :     0.964254  s :     0.964254
      pz      :     0.005659  p :     0.023943
      px      :     0.006413
      py      :     0.011872
 15 H s       :     0.969274  s :     0.969274
      pz      :     0.005845  p :     0.024535
      px      :     0.006001
      py      :     0.012689
 16 H s       :     0.955583  s :     0.955583
      pz      :     0.005636  p :     0.023902
      px      :     0.006769
      py      :     0.011496
 17 H s       :     0.891906  s :     0.891906
      pz      :     0.011029  p :     0.023114
      px      :     0.005891
      py      :     0.006194
 18 H s       :     0.920081  s :     0.920081
      pz      :     0.011383  p :     0.022563
      px      :     0.004463
      py      :     0.006716
 19 H s       :     0.910190  s :     0.910190
      pz      :     0.009626  p :     0.020543
      px      :     0.003334
      py      :     0.007582
 20 H s       :     0.739361  s :     0.739361
      pz      :     0.020962  p :     0.071756
      px      :     0.033643
      py      :     0.017151
 21 H s       :     0.826941  s :     0.826941
      pz      :     0.018276  p :     0.043667
      px      :     0.009191
      py      :     0.016201
 22 H s       :     0.826615  s :     0.826615
      pz      :     0.012379  p :     0.043605
      px      :     0.011329
      py      :     0.019896


                     *******************************
                     * LOEWDIN POPULATION ANALYSIS *
                     *******************************

----------------------
LOEWDIN ATOMIC CHARGES
----------------------
   0 C :   -0.034890
   1 C :   -0.018845
   2 C :   -0.026768
   3 C :   -0.026390
   4 C :   -0.063356
   5 C :   -0.023972
   6 C :   -0.036503
   7 C :   -0.034449
   8 C :    0.086481
   9 O :   -0.187020
  10 O :   -0.039998
  11 N :   -0.116799
  12 H :    0.034055
  13 H :    0.034639
  14 H :    0.032847
  15 H :    0.022231
  16 H :    0.034059
  17 H :    0.056287
  18 H :    0.042367
  19 H :    0.038936
  20 H :    0.084966
  21 H :    0.069674
  22 H :    0.072447

-------------------------------
LOEWDIN REDUCED ORBITAL CHARGES
-------------------------------
  0 C s       :     2.859836  s :     2.859836
      pz      :     0.978598  p :     3.084858
      px      :     1.044025
      py      :     1.062234
      dz2     :     0.006928  d :     0.090196
      dxz     :     0.005762
      dyz     :     0.014096
      dx2y2   :     0.034380
      dxy     :     0.029030
  1 C s       :     2.861239  s :     2.861239
      pz      :     0.958802  p :     3.066842
      px      :     1.061402
      py      :     1.046638
      dz2     :     0.007002  d :     0.090764
      dxz     :     0.013343
      dyz     :     0.007305
      dx2y2   :     0.030477
      dxy     :     0.032637
  2 C s       :     2.861106  s :     2.861106
      pz      :     0.982809  p :     3.076971
      px      :     1.054477
      py      :     1.039686
      dz2     :     0.006041  d :     0.088690
      dxz     :     0.011575
      dyz     :     0.007914
      dx2y2   :     0.029554
      dxy     :     0.033606
  3 C s       :     2.860196  s :     2.860196
      pz      :     0.955027  p :     3.060980
      px      :     1.031424
      py      :     1.074529
      dz2     :     0.008083  d :     0.105214
      dxz     :     0.013138
      dyz     :     0.014319
      dx2y2   :     0.035339
      dxy     :     0.034334
  4 C s       :     2.861177  s :     2.861177
      pz      :     1.013755  p :     3.113184
      px      :     1.060141
      py      :     1.039289
      dz2     :     0.007088  d :     0.088994
      dxz     :     0.013010
      dyz     :     0.006810
      dx2y2   :     0.030042
      dxy     :     0.032043
  5 C s       :     2.860877  s :     2.860877
      pz      :     0.964455  p :     3.072046
      px      :     1.057795
      py      :     1.049795
      dz2     :     0.006074  d :     0.091049
      dxz     :     0.013063
      dyz     :     0.008511
      dx2y2   :     0.030279
      dxy     :     0.033122
  6 C s       :     2.849257  s :     2.849257
      pz      :     1.069626  p :     3.103353
      px      :     1.012304
      py      :     1.021424
      dz2     :     0.014206  d :     0.083893
      dxz     :     0.011941
      dyz     :     0.019541
      dx2y2   :     0.021347
      dxy     :     0.016858
  7 C s       :     2.860039  s :     2.860039
      pz      :     1.043116  p :     3.045801
      px      :     0.953702
      py      :     1.048983
      dz2     :     0.024957  d :     0.128609
      dxz     :     0.024870
      dyz     :     0.027565
      dx2y2   :     0.026557
      dxy     :     0.024660
  8 C s       :     2.873505  s :     2.873505
      pz      :     1.005908  p :     2.754490
      px      :     0.916088
      py      :     0.832493
      dz2     :     0.065424  d :     0.285525
      dxz     :     0.076701
      dyz     :     0.024347
      dx2y2   :     0.060754
      dxy     :     0.058299
  9 O s       :     3.561777  s :     3.561777
      pz      :     1.598297  p :     4.595028
      px      :     1.556564
      py      :     1.440167
      dz2     :     0.004021  d :     0.030216
      dxz     :     0.012295
      dyz     :     0.002664
      dx2y2   :     0.006284
      dxy     :     0.004952
 10 O s       :     3.397666  s :     3.397666
      pz      :     1.667521  p :     4.617785
      px      :     1.237523
      py      :     1.712741
      dz2     :     0.001774  d :     0.024547
      dxz     :     0.011632
      dyz     :     0.001557
      dx2y2   :     0.005469
      dxy     :     0.004114
 11 N s       :     3.147187  s :     3.147187
      pz      :     1.584238  p :     3.929976
      px      :     1.107999
      py      :     1.237739
      dz2     :     0.005590  d :     0.039636
      dxz     :     0.006774
      dyz     :     0.005495
      dx2y2   :     0.009833
      dxy     :     0.011944
 12 H s       :     0.895825  s :     0.895825
      pz      :     0.015256  p :     0.070120
      px      :     0.042923
      py      :     0.011941
 13 H s       :     0.895691  s :     0.895691
      pz      :     0.014627  p :     0.069670
      px      :     0.018945
      py      :     0.036099
 14 H s       :     0.897038  s :     0.897038
      pz      :     0.016746  p :     0.070115
      px      :     0.019461
      py      :     0.033908
 15 H s       :     0.904703  s :     0.904703
      pz      :     0.017404  p :     0.073066
      px      :     0.018813
      py      :     0.036850
 16 H s       :     0.896110  s :     0.896110
      pz      :     0.016603  p :     0.069831
      px      :     0.020330
      py      :     0.032898
 17 H s       :     0.876259  s :     0.876259
      pz      :     0.030937  p :     0.067454
      px      :     0.016825
      py      :     0.019692
 18 H s       :     0.891752  s :     0.891752
      pz      :     0.031279  p :     0.065881
      px      :     0.013511
      py      :     0.021092
 19 H s       :     0.893914  s :     0.893914
      pz      :     0.029990  p :     0.067149
      px      :     0.013579
      py      :     0.023581
 20 H s       :     0.727076  s :     0.727076
      pz      :     0.059667  p :     0.187958
      px      :     0.081052
      py      :     0.047239
 21 H s       :     0.815464  s :     0.815464
      pz      :     0.053712  p :     0.114862
      px      :     0.023142
      py      :     0.038007
 22 H s       :     0.812759  s :     0.812759
      pz      :     0.032654  p :     0.114794
      px      :     0.029254
      py      :     0.052885


                      *****************************
                      * MAYER POPULATION ANALYSIS *
                      *****************************

  NA   - Mulliken gross atomic population
  ZA   - Total nuclear charge
  QA   - Mulliken gross atomic charge
  VA   - Mayer's total valence
  BVA  - Mayer's bonded valence
  FA   - Mayer's free valence

  ATOM       NA         ZA         QA         VA         BVA        FA
  0 C      6.0142     6.0000    -0.0142     3.8543     3.8543    -0.0000
  1 C      6.0062     6.0000    -0.0062     3.8658     3.8658    -0.0000
  2 C      6.0220     6.0000    -0.0220     3.8933     3.8933    -0.0000
  3 C      6.0700     6.0000    -0.0700     3.8901     3.8901    -0.0000
  4 C      6.0872     6.0000    -0.0872     3.8732     3.8732    -0.0000
  5 C      6.0037     6.0000    -0.0037     3.8749     3.8749    -0.0000
  6 C      5.9571     6.0000     0.0429     3.8575     3.8575     0.0000
  7 C      6.1152     6.0000    -0.1152     3.9572     3.9572    -0.0000
  8 C      5.7724     6.0000     0.2276     4.2289     4.2289     0.0000
  9 O      8.2447     8.0000    -0.2447     2.2335     2.2335    -0.0000
 10 O      8.2034     8.0000    -0.2034     2.2130     2.2130     0.0000
 11 N      7.2492     7.0000    -0.2492     3.0830     3.0830    -0.0000
 12 H      0.9748     1.0000     0.0252     0.9819     0.9819     0.0000
 13 H      0.9779     1.0000     0.0221     0.9817     0.9817    -0.0000
 14 H      0.9882     1.0000     0.0118     0.9917     0.9917    -0.0000
 15 H      0.9938     1.0000     0.0062     0.9988     0.9988    -0.0000
 16 H      0.9795     1.0000     0.0205     0.9817     0.9817    -0.0000
 17 H      0.9150     1.0000     0.0850     0.9947     0.9947     0.0000
 18 H      0.9426     1.0000     0.0574     0.9864     0.9864    -0.0000
 19 H      0.9307     1.0000     0.0693     0.9748     0.9748    -0.0000
 20 H      0.8111     1.0000     0.1889     1.0354     1.0354     0.0000
 21 H      0.8706     1.0000     0.1294     1.0017     1.0017    -0.0000
 22 H      0.8702     1.0000     0.1298     0.9967     0.9967     0.0000

  Mayer bond orders larger than 0.1
B(  0-C ,  1-C ) :   1.3867 B(  0-C ,  5-C ) :   1.4060 B(  0-C , 12-H ) :   0.9870 
B(  1-C ,  2-C ) :   1.4024 B(  1-C , 13-H ) :   0.9843 B(  2-C ,  3-C ) :   1.3995 
B(  2-C , 14-H ) :   0.9912 B(  3-C ,  4-C ) :   1.3780 B(  3-C ,  6-C ) :   0.9963 
B(  4-C ,  5-C ) :   1.3853 B(  4-C , 15-H ) :   0.9796 B(  5-C , 16-H ) :   0.9825 
B(  6-C ,  7-C ) :   1.0330 B(  6-C , 17-H ) :   0.9220 B(  6-C , 18-H ) :   0.9324 
B(  7-C ,  8-C ) :   0.8793 B(  7-C , 11-N ) :   1.1199 B(  7-C , 19-H ) :   0.9067 
B(  8-C ,  9-O ) :   2.1014 B(  8-C , 10-O ) :   1.1916 B( 10-O , 20-H ) :   0.9346 
B( 11-N , 21-H ) :   0.9562 B( 11-N , 22-H ) :   0.9543 

-------
TIMINGS
-------

Total SCF time: 0 days 0 hours 1 min 28 sec 

Total time                  ....      88.650 sec
Sum of individual times     ....      88.534 sec  ( 99.9%)

Fock matrix formation       ....      86.191 sec  ( 97.2%)
  XC integration            ....       5.368 sec  (  6.2% of F)
    Basis function eval.    ....       1.515 sec  ( 28.2% of XC)
    Density eval.           ....       1.528 sec  ( 28.5% of XC)
    XC-Functional eval.     ....       0.224 sec  (  4.2% of XC)
    XC-Potential eval.      ....       1.829 sec  ( 34.1% of XC)
Diagonalization             ....       0.052 sec  (  0.1%)
Density matrix formation    ....       0.010 sec  (  0.0%)
Population analysis         ....       0.040 sec  (  0.0%)
Initial guess               ....       0.454 sec  (  0.5%)
Orbital Transformation      ....       0.000 sec  (  0.0%)
Orbital Orthonormalization  ....       0.000 sec  (  0.0%)
DIIS solution               ....       0.020 sec  (  0.0%)
SOSCF solution              ....       0.026 sec  (  0.0%)
Grid generation             ....       1.741 sec  (  2.0%)

-------------------------   --------------------
FINAL SINGLE POINT ENERGY      -553.745511265540
-------------------------   --------------------

------------------------------------------------------------------------------
                         ORCA SCF GRADIENT CALCULATION
------------------------------------------------------------------------------

Gradient of the Kohn-Sham DFT energy:
Kohn-Sham wavefunction type      ... RKS
Hartree-Fock exchange scaling    ...    0.250
Number of operators              ...    1
Number of atoms                  ...   23
Basis set dimensions             ...  223
Integral neglect threshold       ... 2.5e-011
Integral primitive cutoff        ... 2.5e-012

Nuclear repulsion gradient       ... done
One Electron Gradient            
  ECP gradient                   ... done
Pre-screening matrix             ... done
Starting the two electron gradient:
Two electron gradient done
Exchange-correlation gradient    ... done

------------------
CARTESIAN GRADIENT
------------------

   1   C   :   -0.006722356    0.002386963    0.000177619
   2   C   :   -0.008686009    0.008799871   -0.001723698
   3   C   :    0.010813947    0.011348500   -0.002121939
   4   C   :   -0.000847437    0.003205212    0.004404254
   5   C   :    0.004274428   -0.015720737    0.004162535
   6   C   :   -0.004034803   -0.010569589    0.002942336
   7   C   :    0.004216836    0.003416323   -0.001766930
   8   C   :   -0.014272653   -0.013079246   -0.005275428
   9   C   :   -0.017122728    0.011922784    0.024957685
  10   O   :    0.030687486   -0.005330752   -0.018632576
  11   O   :   -0.012786311    0.003359951    0.010513023
  12   N   :   -0.001105950    0.004569466    0.001545068
  13   H   :    0.007412805   -0.000293085   -0.000907914
  14   H   :    0.003189896   -0.006653023    0.001018830
  15   H   :   -0.005186791   -0.004649993    0.002314416
  16   H   :   -0.007249204    0.007644536   -0.001394726
  17   H   :    0.003353469    0.006218579   -0.002048751
  18   H   :   -0.005310499    0.006603984    0.006478288
  19   H   :    0.002593522    0.000708874   -0.006155198
  20   H   :    0.002155694   -0.000884223    0.004132817
  21   H   :   -0.004528173   -0.010624571   -0.016445401
  22   H   :    0.008192085    0.020482676   -0.012665334
  23   H   :    0.010962744   -0.022862497    0.006491024

Difference to translation invariance:
           :    0.0000000000   -0.0000000000    0.0000000000

Norm of the cartesian gradient     ...    0.0792267670
RMS gradient                       ...    0.0095377819
MAX gradient                       ...    0.0306874856

-------
TIMINGS
-------

Total SCF gradient time            ...       37.409 sec

One electron gradient       ....       0.283 sec  (  0.8%)
Prescreening matrices       ....       0.130 sec  (  0.3%)
Two electron gradient       ....      29.396 sec  ( 78.6%)
XC gradient                 ....       7.492 sec  ( 20.0%)
------------------------------------------------------------------------------
                         ORCA GEOMETRY RELAXATION STEP
------------------------------------------------------------------------------

Reading the OPT-File                    .... done
Getting information on internals        .... done
Copying old internal coords+grads       .... done
Making the new internal coordinates     .... (new redundants).... done
Validating the new internal coordinates .... (new redundants).... done
Calculating the B-matrix                .... done
Calculating the G,G- and P matrices     .... done
Transforming gradient to internals      .... done
Projecting the internal gradient        .... done
Number of atoms                         ....  23
Number of internal coordinates          .... 113
Current Energy                          ....  -553.745511266 Eh
Current gradient norm                   ....     0.079226767 Eh/bohr
Maximum allowed component of the step   ....  0.300
Current trust radius                    ....  0.300
Evaluating the initial hessian          ....  (Almloef) done
Projecting the Hessian                  .... done
Forming the augmented Hessian           .... done
Diagonalizing the augmented Hessian     .... done
Last element of RFO vector              ....  0.963744441
Lowest eigenvalues of augmented Hessian:
 -0.017255317  0.009716923  0.010255535  0.011336255  0.015020217
Length of the computed step             ....  0.276864902
The final length of the internal step   ....  0.276864902
Converting the step to cartesian space:
 Initial RMS(Int)=    0.0260452591
Transforming coordinates:
 Iter   0:  RMS(Cart)=    0.1314679408 RMS(Int)=    1.3165742445
 Iter   1:  RMS(Cart)=    0.0079483986 RMS(Int)=    0.0044485403
 Iter   2:  RMS(Cart)=    0.0014261923 RMS(Int)=    0.0006590096
 Iter   3:  RMS(Cart)=    0.0002825014 RMS(Int)=    0.0001623352
 Iter   4:  RMS(Cart)=    0.0000577846 RMS(Int)=    0.0000371805
 Iter   5:  RMS(Cart)=    0.0000122890 RMS(Int)=    0.0000066134
 Iter   6:  RMS(Cart)=    0.0000025801 RMS(Int)=    0.0000019416
 Iter   7:  RMS(Cart)=    0.0000005626 RMS(Int)=    0.0000002795
 Iter   8:  RMS(Cart)=    0.0000001196 RMS(Int)=    0.0000000953
 Iter   9:  RMS(Cart)=    0.0000000262 RMS(Int)=    0.0000000131
done
Storing new coordinates                 .... done

                                .--------------------.
          ----------------------|Geometry convergence|-------------------------
          Item                value                   Tolerance       Converged
          ---------------------------------------------------------------------
          RMS gradient        0.0078270502            0.0001000000      NO
          MAX gradient        0.0361591765            0.0003000000      NO
          RMS step            0.0260452591            0.0020000000      NO
          MAX step            0.0894781911            0.0040000000      NO
          ........................................................
          Max(Bonds)      0.0337      Max(Angles)    5.13
          Max(Dihed)        5.01      Max(Improp)    0.00
          ---------------------------------------------------------------------

The optimization has not yet converged - more geometry cycles are needed


    ---------------------------------------------------------------------------
                         Redundant Internal Coordinates
                            (Angstroem and degrees)

        Definition                    Value    dE/dq     Step     New-Value
    ----------------------------------------------------------------------------
     1. B(C   1,C   0)                1.3953  0.001047 -0.0008    1.3945   
     2. B(C   2,C   1)                1.3977  0.004321 -0.0037    1.3940   
     3. B(C   3,C   2)                1.4072  0.005479 -0.0049    1.4023   
     4. B(C   4,C   3)                1.4114  0.009644 -0.0087    1.4027   
     5. B(C   5,C   4)                1.3984  0.001022 -0.0009    1.3975   
     6. B(C   5,C   0)                1.3955  0.003782 -0.0031    1.3924   
     7. B(C   6,C   3)                1.5197  0.004517 -0.0059    1.5138   
     8. B(C   7,C   6)                1.5503  0.012339 -0.0179    1.5324   
     9. B(C   8,C   7)                1.5349  0.000411 -0.0006    1.5343   
    10. B(O   9,C   8)                1.2220  0.036159 -0.0181    1.2038   
    11. B(O  10,C   8)                1.3503  0.019621 -0.0156    1.3347   
    12. B(N  11,C   7)                1.4683  0.017131 -0.0207    1.4476   
    13. B(H  12,C   0)                1.0823 -0.007475  0.0102    1.0925   
    14. B(H  13,C   1)                1.0824 -0.007437  0.0102    1.0926   
    15. B(H  14,C   2)                1.0834 -0.007025  0.0096    1.0930   
    16. B(H  15,C   4)                1.0795 -0.010160  0.0137    1.0932   
    17. B(H  16,C   5)                1.0824 -0.007342  0.0100    1.0925   
    18. B(H  17,C   6)                1.1125  0.006503 -0.0099    1.1026   
    19. B(H  18,C   6)                1.1130  0.005983 -0.0091    1.1039   
    20. B(H  19,C   7)                1.1087  0.002893 -0.0043    1.1043   
    21. B(H  20,O  10)                0.9600 -0.005263  0.0052    0.9652   
    22. B(H  21,N  11)                1.0469  0.024441 -0.0327    1.0142   
    23. B(H  22,N  11)                1.0463  0.025205 -0.0337    1.0127   
    24. A(C   5,C   0,H  12)          120.04 -0.001449    0.18    120.21   
    25. A(C   1,C   0,C   5)          119.91  0.003100   -0.38    119.53   
    26. A(C   1,C   0,H  12)          120.05 -0.001651    0.21    120.26   
    27. A(C   2,C   1,H  13)          119.97  0.000622   -0.10    119.87   
    28. A(C   0,C   1,C   2)          120.09 -0.000465    0.08    120.17   
    29. A(C   0,C   1,H  13)          119.94 -0.000157    0.02    119.96   
    30. A(C   1,C   2,H  14)          118.91 -0.001252    0.22    119.13   
    31. A(C   1,C   2,C   3)          120.82 -0.001683    0.21    121.03   
    32. A(C   3,C   2,H  14)          120.27  0.002933   -0.43    119.84   
    33. A(C   2,C   3,C   6)          117.50 -0.005539    0.78    118.29   
    34. A(C   2,C   3,C   4)          118.41  0.001257   -0.20    118.21   
    35. A(C   4,C   3,C   6)          124.06  0.004280   -0.58    123.48   
    36. A(C   3,C   4,H  15)          121.83  0.004146   -0.62    121.21   
    37. A(C   3,C   4,C   5)          120.54 -0.002020    0.26    120.80   
    38. A(C   5,C   4,H  15)          117.64 -0.002123    0.35    117.99   
    39. A(C   0,C   5,C   4)          120.23 -0.000202    0.05    120.27   
    40. A(C   0,C   5,H  16)          119.86 -0.000409    0.06    119.91   
    41. A(C   4,C   5,H  16)          119.92  0.000611   -0.10    119.81   
    42. A(C   3,C   6,H  18)          109.66  0.000415   -0.26    109.40   
    43. A(C   7,C   6,H  17)          108.97  0.004710   -1.01    107.96   
    44. A(C   3,C   6,H  17)          104.75 -0.009857    2.16    106.92   
    45. A(H  17,C   6,H  18)          106.82  0.001615   -0.21    106.61   
    46. A(C   3,C   6,C   7)          119.04  0.008235   -1.30    117.75   
    47. A(C   7,C   6,H  18)          107.01 -0.005389    0.67    107.68   
    48. A(C   6,C   7,H  19)          109.92 -0.000866   -0.80    109.12   
    49. A(C   8,C   7,N  11)          109.82 -0.008177    2.49    112.31   
    50. A(C   6,C   7,N  11)          107.80 -0.002314    1.13    108.93   
    51. A(C   6,C   7,C   8)          112.46  0.008087   -1.74    110.72   
    52. A(N  11,C   7,H  19)          106.29  0.001476    0.28    106.56   
    53. A(C   8,C   7,H  19)          110.35  0.001270   -1.17    109.18   
    54. A(O   9,C   8,O  10)          117.49 -0.009231    1.19    118.68   
    55. A(C   7,C   8,O  10)          123.00  0.025190   -3.35    119.64   
    56. A(C   7,C   8,O   9)          119.51 -0.015964    2.17    121.69   
    57. A(C   8,O  10,H  20)          124.55  0.034908   -5.13    119.42   
    58. A(H  21,N  11,H  22)          109.30  0.003603   -2.22    107.08   
    59. A(C   7,N  11,H  22)          110.14 -0.000103   -0.71    109.43   
    60. A(C   7,N  11,H  21)          110.84  0.003457   -1.29    109.54   
    61. D(H  13,C   1,C   0,H  12)      0.01  0.000064   -0.09     -0.08   
    62. D(C   2,C   1,C   0,H  12)    179.98 -0.000088    0.13    180.11   
    63. D(H  13,C   1,C   0,C   5)   -179.58  0.000177   -0.25   -179.83   
    64. D(C   2,C   1,C   0,C   5)      0.38  0.000026   -0.03      0.36   
    65. D(C   3,C   2,C   1,C   0)      0.65  0.000355   -0.51      0.14   
    66. D(H  14,C   2,C   1,H  13)      0.08 -0.000001   -0.01      0.07   
    67. D(C   3,C   2,C   1,H  13)   -179.39  0.000203   -0.29   -179.67   
    68. D(H  14,C   2,C   1,C   0)   -179.89  0.000151   -0.24   -180.12   
    69. D(C   6,C   3,C   2,H  14)      1.07 -0.000411    0.48      1.55   
    70. D(C   6,C   3,C   2,C   1)   -179.47 -0.000640    0.77   -178.71   
    71. D(C   4,C   3,C   2,H  14)    178.98 -0.000392    0.59    179.58   
    72. D(C   4,C   3,C   2,C   1)     -1.56 -0.000621    0.88     -0.68   
    73. D(C   5,C   4,C   3,C   6)    179.24  0.000318   -0.57    178.67   
    74. D(H  15,C   4,C   3,C   2)   -178.12 -0.000037    0.10   -178.03   
    75. D(C   5,C   4,C   3,C   2)      1.48  0.000522   -0.72      0.76   
    76. D(H  15,C   4,C   3,C   6)     -0.36 -0.000241    0.25     -0.11   
    77. D(H  16,C   5,C   4,H  15)     -0.69  0.000265   -0.37     -1.06   
    78. D(C   0,C   5,C   4,H  15)    179.13  0.000412   -0.59    178.54   
    79. D(C   0,C   5,C   4,C   3)     -0.48 -0.000148    0.20     -0.28   
    80. D(H  16,C   5,C   0,H  12)     -0.24  0.000142   -0.19     -0.43   
    81. D(C   4,C   5,C   0,H  12)    179.94 -0.000008    0.02    179.96   
    82. D(H  16,C   5,C   4,C   3)    179.70 -0.000295    0.41    180.11   
    83. D(C   4,C   5,C   0,C   1)     -0.46 -0.000122    0.18     -0.28   
    84. D(H  16,C   5,C   0,C   1)    179.36  0.000027   -0.03    179.32   
    85. D(H  18,C   6,C   3,C   4)    138.05  0.000081    1.10    139.15   
    86. D(H  18,C   6,C   3,C   2)    -44.16  0.000016    1.23    -42.93   
    87. D(H  17,C   6,C   3,C   4)   -107.63 -0.002907    1.85   -105.78   
    88. D(H  17,C   6,C   3,C   2)     70.15 -0.002972    1.98     72.13   
    89. D(C   7,C   6,C   3,C   4)     14.42  0.000648    1.44     15.86   
    90. D(C   7,C   6,C   3,C   2)   -167.79  0.000583    1.57   -166.22   
    91. D(C   8,C   7,C   6,C   3)     76.46  0.006601   -3.29     73.17   
    92. D(H  19,C   7,C   6,H  17)     73.02 -0.003568    1.18     74.21   
    93. D(H  19,C   7,C   6,C   3)    -46.90 -0.000113    0.04    -46.87   
    94. D(N  11,C   7,C   6,H  18)     72.74 -0.002161    0.25     72.99   
    95. D(N  11,C   7,C   6,H  17)    -42.42 -0.003582    0.65    -41.77   
    96. D(N  11,C   7,C   6,C   3)   -162.34 -0.000127   -0.50   -162.84   
    97. D(C   8,C   7,C   6,H  18)    -48.45  0.004567   -2.54    -50.99   
    98. D(H  19,C   7,C   6,H  18)   -171.82 -0.002148    0.79   -171.03   
    99. D(C   8,C   7,C   6,H  17)   -163.61  0.003147   -2.14   -165.76   
   100. D(O  10,C   8,C   7,H  19)     60.87  0.000944    1.88     62.75   
   101. D(O  10,C   8,C   7,N  11)    177.71 -0.001395    3.01    180.73   
   102. D(O  10,C   8,C   7,C   6)    -62.25 -0.004630    5.01    -57.24   
   103. D(O   9,C   8,C   7,H  19)   -118.85  0.002458   -0.80   -119.65   
   104. D(O   9,C   8,C   7,N  11)     -2.01  0.000119    0.33     -1.67   
   105. D(O   9,C   8,C   7,C   6)    118.02 -0.003116    2.33    120.36   
   106. D(H  20,O  10,C   8,O   9)    178.97 -0.002569    3.47    182.44   
   107. D(H  20,O  10,C   8,C   7)     -0.76 -0.001063    0.84      0.08   
   108. D(H  22,N  11,C   7,H  19)     58.44 -0.003579    2.17     60.61   
   109. D(H  22,N  11,C   7,C   8)    -60.92 -0.001546    2.07    -58.86   
   110. D(H  22,N  11,C   7,C   6)    176.25 -0.004979    1.95    178.20   
   111. D(H  21,N  11,C   7,H  19)    179.52  0.003151   -1.94    177.57   
   112. D(H  21,N  11,C   7,C   8)     60.15  0.005184   -2.05     58.11   
   113. D(H  21,N  11,C   7,C   6)    -62.68  0.001751   -2.16    -64.84   
    ----------------------------------------------------------------------------

         *************************************************************
         *                GEOMETRY OPTIMIZATION CYCLE   2            *
         *************************************************************
---------------------------------
CARTESIAN COORDINATES (ANGSTROEM)
---------------------------------
  C     -1.528886    0.108558    0.313080
  C     -0.825332    1.257230   -0.047699
  C      0.557233    1.207087   -0.218856
  C      1.265240    0.010470   -0.036513
  C      0.546661   -1.134594    0.337752
  C     -0.839586   -1.085493    0.508021
  C      2.768935    0.033162   -0.209422
  C      3.493763   -1.311647   -0.328884
  C      3.229591   -1.949323   -1.699211
  O      4.126129   -2.204212   -2.461089
  O      1.974334   -2.187963   -2.084942
  N      4.905190   -1.108519   -0.079791
  H     -2.612646    0.145724    0.445860
[...]
     30      -0.000054  -0.000070   0.000167   0.000165   0.000055  -0.000134
     31       0.000035   0.000018  -0.000096  -0.000063  -0.000025   0.000035
     32       0.000064   0.000164  -0.000093  -0.000133  -0.000012   0.000136
     33       0.000122  -0.000016  -0.000010  -0.000003  -0.000004   0.000021
     34      -0.000094  -0.000089  -0.000002   0.000055  -0.000007  -0.000038
     35      -0.000300   0.000001   0.000028   0.000014   0.000009  -0.000006
     36      -0.001121  -0.165324   0.267249  -0.704314  -0.133667  -0.616156
     37       0.000263   0.003305  -0.005732   0.014039   0.006404   0.012256
     38      -0.000024   0.003681  -0.005764   0.016133  -0.000056   0.014115
     39      -0.000753   0.051141  -0.222280   0.105340   0.306504  -0.291390
     40       0.000831  -0.070284   0.307751  -0.138987  -0.417222   0.402239
     41      -0.000698   0.056868  -0.249101   0.112234   0.337368  -0.325381
     42      -0.006392   0.037923  -0.405520  -0.223437  -0.136277   0.100394
     43      -0.005681   0.051417  -0.535641  -0.294452  -0.176283   0.128488
     44       0.004485  -0.044669   0.466488   0.256426   0.153621  -0.111996
     45       0.005946   0.442115   0.099303  -0.137812   0.103726   0.061149
     46      -0.004807  -0.604149  -0.134202   0.187241  -0.137373  -0.080475
     47       0.005274   0.503081   0.111596  -0.155896   0.114196   0.066904
     48       0.001199   0.180185  -0.037895   0.208754  -0.343451  -0.223106
     49       0.001606   0.240541  -0.048111   0.269451  -0.450091  -0.296434
     50      -0.001268  -0.210683   0.042231  -0.236447   0.394690   0.259814
     51      -0.283755   0.004852   0.000901  -0.001311   0.000319   0.000966
     52      -0.026890   0.000794  -0.000166  -0.000472   0.000030   0.000043
     53      -0.751867   0.007905   0.003265   0.000066   0.001010   0.000905
     54       0.204857   0.001224  -0.006189  -0.004051  -0.000938   0.001674
     55       0.474489  -0.000928  -0.008746  -0.004446  -0.001748   0.001676
     56      -0.271100   0.000864   0.005115   0.002419   0.001028  -0.001030
     57       0.026513  -0.001927  -0.000946   0.000506  -0.000310  -0.000147
     58       0.050437  -0.005565  -0.002805   0.001083  -0.001068  -0.000241
     59      -0.025052   0.001991   0.001009  -0.000488   0.000383   0.000144
     60       0.000419   0.001373  -0.001229  -0.001993  -0.000344   0.001839
     61      -0.001012   0.000208   0.001363   0.000629   0.000311  -0.000258
     62      -0.000885  -0.002095   0.001316   0.001820   0.000242  -0.001869
     63       0.002117  -0.000230  -0.000119   0.000031  -0.000059  -0.000032
     64      -0.001359   0.000230   0.000114  -0.000098   0.000056   0.000088
     65       0.001142  -0.000064  -0.000056   0.000014  -0.000027  -0.000033
     66      -0.000477   0.000035   0.000003  -0.000083  -0.000013   0.000072
     67       0.001678   0.000207  -0.000087  -0.000149   0.000006   0.000057
     68      -0.001316   0.000113  -0.000086  -0.000050  -0.000020  -0.000033
                  66         67         68    
      0      -0.000000   0.000001   0.000052
      1       0.000004   0.000001  -0.000027
      2      -0.000004   0.000001  -0.000023
      3      -0.000007   0.000009   0.000080
      4       0.000007  -0.000000  -0.000118
      5      -0.000006   0.000006   0.000048
      6      -0.000010   0.000031   0.000373
      7      -0.000007   0.000019  -0.000706
      8       0.000008  -0.000014   0.000442
      9       0.000009  -0.000059  -0.000756
     10       0.000070  -0.000039   0.000318
     11      -0.000027  -0.000010   0.000182
     12       0.000007   0.000036   0.000326
     13      -0.000001  -0.000021   0.000501
     14      -0.000008   0.000020  -0.000523
     15      -0.000006  -0.000007   0.000053
     16      -0.000004   0.000007   0.000087
     17       0.000002  -0.000011  -0.000079
     18       0.000105   0.000015  -0.000329
     19      -0.000136   0.000449  -0.000059
     20      -0.000062  -0.000076  -0.000014
     21       0.000482  -0.000683  -0.000309
     22      -0.001004  -0.001531   0.000062
     23       0.002513  -0.000171   0.000354
     24       0.000043   0.000018   0.002343
     25       0.000038   0.000148  -0.000283
     26       0.000220   0.000071  -0.001939
     27       0.000274  -0.000046  -0.001543
     28      -0.000030  -0.000060   0.000103
     29       0.000017  -0.000086   0.000819
     30       0.000020   0.000075   0.040082
     31       0.000025  -0.000030  -0.010803
     32       0.000181  -0.000151  -0.046663
     33      -0.044986   0.003185  -0.000175
     34      -0.009476  -0.078817   0.000067
     35       0.036921  -0.005471  -0.000309
     36       0.000004  -0.000004  -0.000544
     37       0.000003   0.000013   0.000094
     38      -0.000001  -0.000002   0.000112
     39       0.000019   0.000044  -0.000795
     40      -0.000043   0.000014   0.000818
     41       0.000017   0.000008  -0.000477
     42       0.000043  -0.000046   0.001187
     43       0.000062  -0.000083   0.003109
     44      -0.000018   0.000068  -0.001425
     45       0.000018  -0.000081   0.000724
     46      -0.000086   0.000135  -0.001633
     47       0.000020  -0.000169   0.001846
     48       0.000024   0.000025  -0.000591
     49       0.000043   0.000010  -0.000501
     50      -0.000016   0.000000   0.000548
     51      -0.000547  -0.000484   0.000903
     52       0.000156   0.000156  -0.000715
     53      -0.000647   0.000876  -0.000891
     54      -0.000810  -0.001242   0.001070
     55       0.000528   0.000012   0.000831
     56       0.001079   0.000976  -0.000369
     57       0.004219   0.004229   0.000001
     58       0.009321   0.007740   0.000867
     59      -0.005162  -0.002341   0.000003
     60       0.001039  -0.001549  -0.635261
     61      -0.000311   0.000297   0.171032
     62      -0.001503   0.001883   0.750490
     63       0.384440   0.285492   0.000208
     64       0.631731   0.439215   0.000500
     65      -0.321674  -0.255317   0.000901
     66       0.224572  -0.323507   0.002004
     67      -0.497314   0.660680  -0.002809
     68      -0.219708   0.335997  -0.000303


-----------
IR SPECTRUM
-----------

 Mode    freq (cm**-1)   T**2         TX         TY         TZ
-------------------------------------------------------------------
   6:        35.20    0.329665  ( -0.417229   0.373595  -0.126538)
   7:        40.56    8.092364  ( -0.505470   2.796534   0.127528)
   8:        77.81    2.560692  (  0.018253  -1.577090  -0.270456)
   9:       101.56    3.484645  ( -0.435599   1.779640   0.357461)
  10:       194.10   30.439802  (  0.198368  -5.464212   0.736776)
  11:       215.21    8.652147  (  0.172936   2.643800   1.277717)
  12:       290.08    4.900064  ( -1.817539  -0.150579  -1.254568)
  13:       316.72   15.376618  (  2.824547   1.414698   2.323183)
  14:       330.69   12.162784  ( -2.089522   2.782162  -0.237187)
  15:       358.13   11.388333  (  1.490549  -2.963800   0.618457)
  16:       417.81    0.017908  (  0.064626  -0.114845  -0.023285)
  17:       493.93    9.265573  (  1.916696  -2.339962  -0.341215)
  18:       504.07   17.917804  (  0.398913  -3.529998  -2.301692)
  19:       551.06   61.832014  (  1.632883  -7.530571  -1.567228)
  20:       608.92    5.271441  ( -2.080570   0.934593   0.263067)
  21:       631.52    0.465508  (  0.278348  -0.618340   0.075404)
  22:       652.47   25.625441  ( -2.921750   2.958691   2.887035)
  23:       725.29   37.718552  ( -0.314799   3.910176   4.725460)
  24:       743.02    2.520614  (  0.559875   0.744019   1.285920)
  25:       770.18   15.469985  ( -1.039267  -2.613246  -2.749701)
  26:       827.98    8.490970  ( -0.142490   0.004436   2.910438)
  27:       845.00    0.287641  (  0.035676   0.498626  -0.194267)
  28:       871.32    0.137877  ( -0.119093   0.349961   0.034952)
  29:       924.72  114.992170  (  7.174798  -0.634381   7.944306)
  30:       947.22   14.829740  ( -3.178720   0.697029  -2.059036)
  31:       990.99   23.883356  (  3.760938   0.164249   3.116364)
  32:      1007.64    0.035089  ( -0.090675   0.134286   0.093991)
  33:      1016.73    0.628200  (  0.720917  -0.183594  -0.273444)
  34:      1029.19    7.460936  (  2.207489   0.112518   1.604764)
  35:      1034.40   29.719911  ( -4.074939  -0.587044  -3.573536)
  36:      1060.73    3.315775  ( -1.791833   0.112280   0.304141)
  37:      1100.70    8.918871  ( -0.373008   1.617754  -2.482460)
  38:      1150.92    3.453968  ( -0.940488   1.533122   0.467961)
  39:      1170.97    0.079395  ( -0.280492  -0.014451   0.022594)
  40:      1191.78    2.754242  ( -1.529071   0.644874  -0.017907)
  41:      1195.06   20.045911  ( -4.305531   1.053703  -0.630890)
  42:      1213.37    2.288845  (  0.062594   0.023793  -1.511410)
  43:      1220.86    4.102946  ( -1.776752   0.950777  -0.205235)
  44:      1244.27    4.603930  ( -1.894308  -0.274508  -0.969625)
  45:      1297.79   96.723306  ( -8.438637  -0.197120  -5.047163)
  46:      1330.19    9.620433  ( -2.283548   0.580810  -2.017052)
  47:      1358.22    0.777324  ( -0.688782  -0.546976  -0.060995)
  48:      1377.18  103.269717  ( -9.043202  -1.449007  -4.403476)
  49:      1397.46    0.433848  ( -0.515291   0.070098  -0.404240)
  50:      1411.33   42.880075  ( -5.088996  -0.598563  -4.077244)
  51:      1462.62    8.226371  ( -1.566114  -1.790815  -1.602073)
  52:      1490.25    8.953117  (  0.682792   2.488725  -1.514319)
  53:      1536.43   16.151779  (  4.014374  -0.066551   0.179313)
  54:      1654.65   21.265716  (  3.850818   0.040741  -2.536781)
  55:      1663.43    3.063259  ( -0.617150  -0.833035   1.410120)
  56:      1688.71    3.129924  ( -1.743779   0.298596  -0.001009)
  57:      1911.48  376.917302  ( 15.222268  -3.005880 -11.668957)
  58:      3037.62   10.290010  (  2.596594   1.831909  -0.437971)
  59:      3069.43   15.672509  ( -2.628126  -2.933911  -0.397025)
  60:      3130.32    4.699108  ( -1.023822  -1.147169   1.528038)
  61:      3192.23    3.135429  ( -1.588156   0.690496  -0.369331)
  62:      3199.39    1.314506  (  0.864961   0.584133  -0.474486)
  63:      3208.29    2.189171  (  1.461507  -0.122947   0.195071)
  64:      3219.02    8.939098  (  0.462534   2.271289  -1.888493)
  65:      3227.74    5.381014  (  2.283431  -0.402444  -0.070683)
  66:      3532.39    5.267632  (  1.669935  -0.293156  -1.546936)
  67:      3605.21    8.051663  ( -0.352883   2.788792   0.387008)
  68:      3756.80  320.163221  (-13.033119   5.897852  10.747854)

The first frequency considered to be a vibration is 6
The total number of vibrations considered is 63


--------------------------
THERMOCHEMISTRY AT 298.15K
--------------------------

Temperature         ... 298.15 K
Pressure            ... 1.00 atm
Total Mass          ... 165.19 AMU

Throughout the following assumptions are being made:
  (1) The electronic state is orbitally nondegenerate
  (2) There are no thermally accessible electronically excited states
  (3) Hindered rotations indicated by low frequency modes are not
      treated as such but are treated as vibrations and this may
      cause some error
  (4) All equations used are the standard statistical mechanics
      equations for an ideal gas
  (5) All vibrations are strictly harmonic

freq.      35.20  E(vib)   ...       0.54 
freq.      40.56  E(vib)   ...       0.54 
freq.      77.81  E(vib)   ...       0.49 
freq.     101.56  E(vib)   ...       0.46 
freq.     194.10  E(vib)   ...       0.36 
freq.     215.21  E(vib)   ...       0.34 
freq.     290.08  E(vib)   ...       0.27 
freq.     316.72  E(vib)   ...       0.25 
freq.     330.69  E(vib)   ...       0.24 
freq.     358.13  E(vib)   ...       0.22 
freq.     417.81  E(vib)   ...       0.18 
freq.     493.93  E(vib)   ...       0.14 
freq.     504.07  E(vib)   ...       0.14 
freq.     551.06  E(vib)   ...       0.12 
freq.     608.92  E(vib)   ...       0.10 
freq.     631.52  E(vib)   ...       0.09 
freq.     652.47  E(vib)   ...       0.08 
freq.     725.29  E(vib)   ...       0.06 
freq.     743.02  E(vib)   ...       0.06 
freq.     770.18  E(vib)   ...       0.05 
freq.     827.98  E(vib)   ...       0.04 
freq.     845.00  E(vib)   ...       0.04 
freq.     871.32  E(vib)   ...       0.04 
freq.     924.72  E(vib)   ...       0.03 
freq.     947.22  E(vib)   ...       0.03 
freq.     990.99  E(vib)   ...       0.02 
freq.    1007.64  E(vib)   ...       0.02 
freq.    1016.73  E(vib)   ...       0.02 
freq.    1029.19  E(vib)   ...       0.02 
freq.    1034.40  E(vib)   ...       0.02 
freq.    1060.73  E(vib)   ...       0.02 
freq.    1100.70  E(vib)   ...       0.02 
freq.    1150.92  E(vib)   ...       0.01 
freq.    1170.97  E(vib)   ...       0.01 
freq.    1191.78  E(vib)   ...       0.01 
freq.    1195.06  E(vib)   ...       0.01 
freq.    1213.37  E(vib)   ...       0.01 
freq.    1220.86  E(vib)   ...       0.01 
freq.    1244.27  E(vib)   ...       0.01 
freq.    1297.79  E(vib)   ...       0.01 
freq.    1330.19  E(vib)   ...       0.01 
freq.    1358.22  E(vib)   ...       0.01 
freq.    1377.18  E(vib)   ...       0.01 
freq.    1397.46  E(vib)   ...       0.00 
freq.    1411.33  E(vib)   ...       0.00 
freq.    1462.62  E(vib)   ...       0.00 
freq.    1490.25  E(vib)   ...       0.00 
freq.    1536.43  E(vib)   ...       0.00 
freq.    1654.65  E(vib)   ...       0.00 
freq.    1663.43  E(vib)   ...       0.00 
freq.    1688.71  E(vib)   ...       0.00 
freq.    1911.48  E(vib)   ...       0.00 
freq.    3037.62  E(vib)   ...       0.00 
freq.    3069.43  E(vib)   ...       0.00 
freq.    3130.32  E(vib)   ...       0.00 
freq.    3192.23  E(vib)   ...       0.00 
freq.    3199.39  E(vib)   ...       0.00 
freq.    3208.29  E(vib)   ...       0.00 
freq.    3219.02  E(vib)   ...       0.00 
freq.    3227.74  E(vib)   ...       0.00 
freq.    3532.39  E(vib)   ...       0.00 
freq.    3605.21  E(vib)   ...       0.00 
freq.    3756.80  E(vib)   ...       0.00 

------------
INNER ENERGY
------------

The inner energy is: U= E(el) + E(ZPE) + E(vib) + E(rot) + E(trans)
    E(el)   - is the total energy from the electronic structure calculation
              = E(kin-el) + E(nuc-el) + E(el-el) + E(nuc-nuc)
    E(ZPE)  - the the zero temperature vibrational energy from the frequency calculation
    E(vib)  - the the finite temperature correction to E(ZPE) due to population
              of excited vibrational states
    E(rot)  - is the rotational thermal energy
    E(trans)- is the translational thermal energy

Summary of contributions to the inner energy U:
Electronic energy                ...   -553.76346590 Eh
Zero point energy                ...      0.19104807 Eh     119.88 kcal/mol
Thermal vibrational correction   ...      0.00827021 Eh       5.19 kcal/mol
Thermal rotational correction    ...      0.00141627 Eh       0.89 kcal/mol
Thermal translational correction ...      0.00141627 Eh       0.89 kcal/mol
-----------------------------------------------------------------------
Total thermal energy                   -553.56131508 Eh


Summary of corrections to the electronic energy:
(perhaps to be used in another calculation)
Total thermal correction                  0.01110275 Eh       6.97 kcal/mol
Non-thermal (ZPE) correction              0.19104807 Eh     119.88 kcal/mol
-----------------------------------------------------------------------
Total correction                          0.20215083 Eh     126.85 kcal/mol


--------
ENTHALPY
--------

The enthalpy is H = U + kB*T
                kB is Boltzmann's constant
Total free energy                 ...   -553.56131508 Eh 
Thermal Enthalpy correction       ...      0.00094421 Eh       0.59 kcal/mol
-----------------------------------------------------------------------
Total Enthalpy                    ...   -553.56037087 Eh


Vibrational entropy computed according to the QRRHO of S. Grimme
Chem.Eur.J. 2012 18 9955

check  

-------
ENTROPY
-------

The entropy contributions are T*S = T*(S(el)+S(vib)+S(rot)+S(trans)
     S(el)   - electronic entropy
     S(vib)  - vibrational entropy
     S(rot)  - rotational entropy
     S(trans)- translational entropy
The entropies will be listed as mutliplied by the temperature to get
units of energy

Electronic entropy                ...      0.00000000 Eh      0.00 kcal/mol
Vibrational entropy               ...      0.01431284 Eh      8.98 kcal/mol
Rotational entropy                ...      0.01356718 Eh      8.51 kcal/mol
Translational entropy             ...      0.01958212 Eh     12.29 kcal/mol
-----------------------------------------------------------------------
Final entropy term                ...      0.04746215 Eh     29.78 kcal/mol


CAUTION: The rotational entropy is not quite correctly treated here
         because it includes a symmetry number that is not yet correctly
         implemented in ORCA!
For a nonlinear molecule the correct rotational entropy is:
    S(rot) = R*(ln(qrot/sn)+1.5)
    R    = 8.31441 J/mol/K = 1.987191683e-3 kcal/mol/K
    qrot = 1164580.8781908
    sn is the rotational symmetry number. We have assumed 3 here
       if it is different for your molecule then you should correct
       the printed rotational entropy by manually evaluating the equation
       as given above

For convenience we print out the resulting values for sn=1 - 12:
 sn= 1  qrot/sn= 1164580.8782 T*S(rot)=     9.16 kcal/mol T*S(tot)=    30.43 kcal/mol
 sn= 2  qrot/sn=  582290.4391 T*S(rot)=     8.75 kcal/mol T*S(tot)=    30.02 kcal/mol
 sn= 3  qrot/sn=  388193.6261 T*S(rot)=     8.51 kcal/mol T*S(tot)=    29.78 kcal/mol
 sn= 4  qrot/sn=  291145.2195 T*S(rot)=     8.34 kcal/mol T*S(tot)=    29.61 kcal/mol
 sn= 5  qrot/sn=  232916.1756 T*S(rot)=     8.21 kcal/mol T*S(tot)=    29.48 kcal/mol
 sn= 6  qrot/sn=  194096.8130 T*S(rot)=     8.10 kcal/mol T*S(tot)=    29.37 kcal/mol
 sn= 7  qrot/sn=  166368.6969 T*S(rot)=     8.01 kcal/mol T*S(tot)=    29.28 kcal/mol
 sn= 8  qrot/sn=  145572.6098 T*S(rot)=     7.93 kcal/mol T*S(tot)=    29.20 kcal/mol
 sn= 9  qrot/sn=  129397.8754 T*S(rot)=     7.86 kcal/mol T*S(tot)=    29.13 kcal/mol
 sn=10  qrot/sn=  116458.0878 T*S(rot)=     7.80 kcal/mol T*S(tot)=    29.07 kcal/mol
 sn=11  qrot/sn=  105870.9889 T*S(rot)=     7.74 kcal/mol T*S(tot)=    29.01 kcal/mol
 sn=12  qrot/sn=   97048.4065 T*S(rot)=     7.69 kcal/mol T*S(tot)=    28.96 kcal/mol


-------------------
GIBBS FREE ENTHALPY
-------------------

The Gibbs free enthalpy is G = H - T*S

Total enthalpy                    ...   -553.56037087 Eh 
Total entropy correction          ...     -0.04746215 Eh    -29.78 kcal/mol
-----------------------------------------------------------------------
Final Gibbs free enthalpy         ...   -553.60783302 Eh

For completeness - the Gibbs free enthalpy minus the electronic energy
G-E(el)                           ...      0.15563289 Eh     97.66 kcal/mol


Timings for individual modules:

Sum of individual times         ...     9452.681 sec (= 157.545 min)
GTO integral calculation        ...        6.471 sec (=   0.108 min)   0.1 %
SCF iterations                  ...     1151.955 sec (=  19.199 min)  12.2 %
SCF Gradient evaluation         ...      549.508 sec (=   9.158 min)   5.8 %
Geometry relaxation             ...        5.433 sec (=   0.091 min)   0.1 %
Analytical frequency calculation...     7739.314 sec (= 128.989 min)  81.9 %
                             ****ORCA TERMINATED NORMALLY****
TOTAL RUN TIME: 0 days 2 hours 37 minutes 36 seconds 730 msec
