
                                 *****************
                                 * O   R   C   A *
                                 *****************

           --- An Ab Initio, DFT and Semiempirical electronic structure package ---

                  #######################################################
                  #                        -***-                        #
                  #  Department of molecular theory and spectroscopy    #
                  #              Directorship: Frank Neese              #
                  # Max Planck Institute for Chemical Energy Conversion #
                  #                  D-45470 Muelheim/Ruhr              #
                  #                       Germany                       #
                  #                                                     #
                  #                  All rights reserved                #
                  #                        -***-                        #
                  #######################################################


                         Program Version 4.0.0 -  RELEASE  -


 With contributions from (in alphabetic order):
   Daniel Aravena         : Magnetic Properties
   Michael Atanasov       : Ab Initio Ligand Field Theory
   Ute Becker             : Parallelization
   Martin Brehm           : Molecular dynamics
   Dmytro Bykov           : SCF Hessian
   Vijay G. Chilkuri      : MRCI spin determinant printing
   Dipayan Datta          : RHF DLPNO-CCSD density
   Achintya Kumar Dutta   : EOM-CC, STEOM-CC
   Dmitry Ganyushin       : Spin-Orbit,Spin-Spin,Magnetic field MRCI
   Yang Guo               : DLPNO-NEVPT2, CIM, IAO-localization
   Andreas Hansen         : Spin unrestricted coupled pair/coupled cluster methods
   Lee Huntington         : MR-EOM, pCC
   Robert Izsak           : Overlap fitted RIJCOSX, COSX-SCS-MP3, EOM
   Christian Kollmar      : KDIIS, OOCD, Brueckner-CCSD(T), CCSD density
   Simone Kossmann        : Meta GGA functionals, TD-DFT gradient, OOMP2, MP2 Hessian
   Martin Krupicka        : AUTO-CI
   Dagmar Lenk            : GEPOL surface
   Dimitrios Liakos       : Extrapolation schemes; parallel MDCI
   Dimitrios Manganas     : ROCIS; embedding schemes
   Dimitrios Pantazis     : SARC Basis sets
   Taras Petrenko         : DFT Hessian,TD-DFT gradient, ASA, ECA, R-Raman, ABS, FL, XAS/XES, NRVS
   Peter Pinski           : DLPNO-MP2
   Christoph Reimann      : Effective Core Potentials
   Marius Retegan         : Local ZFS, SOC
   Christoph Riplinger    : Optimizer, TS searches, QM/MM, DLPNO-CCSD(T), (RO)-DLPNO pert. Triples
   Tobias Risthaus        : Range-separated hybrids, TD-DFT gradient, RPA, STAB
   Michael Roemelt        : Restricted open shell CIS
   Masaaki Saitow         : Open-shell DLPNO
   Barbara Sandhoefer     : DKH picture change effects
   Kantharuban Sivalingam : CASSCF convergence, NEVPT2, FIC-MRCI
   Georgi Stoychev        : AutoAux
   Boris Wezisla          : Elementary symmetry handling
   Frank Wennmohs         : Technical directorship


 We gratefully acknowledge several colleagues who have allowed us to
 interface, adapt or use parts of their codes:
   Stefan Grimme, W. Hujo, H. Kruse,             : VdW corrections, initial TS optimization,
                  C. Bannwarth                     DFT functionals, gCP, sTDA/sTD-DF
   Ed Valeev                                     : LibInt (2-el integral package), F12 methods
   Garnet Chan, S. Sharma, J. Yang, R. Olivares  : DMRG
   Ulf Ekstrom                                   : XCFun DFT Library
   Mihaly Kallay                                 : mrcc  (arbitrary order and MRCC methods)
   Jiri Pittner, Ondrej Demel                    : Mk-CCSD
   Frank Weinhold                                : gennbo (NPA and NBO analysis)
   Christopher J. Cramer and Donald G. Truhlar   : smd solvation model


 Your calculation uses the libint2 library for the computation of 2-el integrals
 For citations please refer to: http://libint.valeyev.net

 This ORCA versions uses:
   CBLAS   interface :  Fast vector & matrix operations
   LAPACKE interface :  Fast linear algebra routines




*****************************************
The coordinations will be read from file: tyrosine.xyz
*****************************************


Your calculation utilizes the basis: def2-SVP
   F. Weigend and R. Ahlrichs, Phys. Chem. Chem. Phys. 7, 3297 (2005).

================================================================================
                                        WARNINGS
                       Please study these warnings very carefully!
================================================================================

Warning: TCutStore was < 0. Adjusted to Thresh (uncritical)

WARNING: Geometry Optimization
  ===> : Switching off AutoStart
         For restart on a previous wavefunction, please use MOREAD

INFO   : the flag for use of LIBINT has been found!

================================================================================
                                       INPUT FILE
================================================================================
NAME = tyrosine.inp
|  1> ! PBE0
|  2> ! opt anfreq
|  3> * xyzfile 0 1 tyrosine.xyz **                         ****END OF INPUT****
================================================================================

                       *****************************
                       * Geometry Optimization Run *
                       *****************************

Geometry optimization settings:
Update method            Update   .... BFGS
Choice of coordinates    CoordSys .... Redundant Internals
Initial Hessian          InHess   .... Almoef's Model

Convergence Tolerances:
Energy Change            TolE     .... 5.0000e-006 Eh
Max. Gradient            TolMAXG  .... 3.0000e-004 Eh/bohr
RMS Gradient             TolRMSG  .... 1.0000e-004 Eh/bohr
Max. Displacement        TolMAXD  .... 4.0000e-003 bohr
RMS Displacement         TolRMSD  .... 2.0000e-003 bohr

------------------------------------------------------------------------------
                        ORCA OPTIMIZATION COORDINATE SETUP
------------------------------------------------------------------------------

The optimization will be done in new redundant internal coordinates
Making redundant internal coordinates   ...  (new redundants) done
Evaluating the initial hessian          ...  (Almloef) done
Evaluating the coordinates              ...  done
Calculating the B-matrix                .... done
Calculating the G-matrix                .... done
Diagonalizing the G-matrix              .... done
Small eigenvalue found = 8.609e-003
Small eigenvalue found = 2.739e-002
The first mode is                       ....   51
The number of degrees of freedom        ....   66

    -----------------------------------------------------------------
                    Redundant Internal Coordinates


    -----------------------------------------------------------------
         Definition                    Initial Value    Approx d2E/dq
    -----------------------------------------------------------------
      1. B(C   1,C   0)                  1.3982         0.606264   
      2. B(C   2,C   1)                  1.4006         0.600898   
      3. B(C   3,C   2)                  1.3967         0.609672   
      4. B(C   4,C   3)                  1.3975         0.607800   
      5. B(C   5,C   4)                  1.4066         0.587791   
      6. B(C   5,C   0)                  1.4107         0.579016   
      7. B(C   6,C   5)                  1.5198         0.387854   
      8. B(C   7,C   6)                  1.5501         0.346930   
      9. B(C   8,C   7)                  1.5345         0.367433   
     10. B(O   9,C   8)                  1.2218         1.037890   
     11. B(O  10,C   8)                  1.3504         0.647222   
     12. B(N  11,C   7)                  1.4683         0.419658   
     13. B(O  12,C   2)                  1.3483         0.652276   
     14. B(H  13,C   0)                  1.0794         0.374392   
     15. B(H  14,C   1)                  1.0829         0.369676   
     16. B(H  15,C   3)                  1.0827         0.369824   
     17. B(H  16,C   4)                  1.0834         0.368954   
     18. B(H  17,C   6)                  1.1127         0.331329   
     19. B(H  18,C   6)                  1.1129         0.330994   
     20. B(H  19,C   7)                  1.1090         0.335854   
     21. B(H  20,O  10)                  0.9603         0.519462   
     22. B(H  21,N  11)                  1.0470         0.377754   
     23. B(H  22,N  11)                  1.0464         0.378592   
     24. B(H  23,O  12)                  0.9679         0.505103   
     25. A(C   5,C   0,H  13)          121.8056         0.351155   
     26. A(C   1,C   0,H  13)          117.6105         0.353897   
     27. A(C   1,C   0,C   5)          120.5828         0.427047   
     28. A(C   0,C   1,H  14)          119.4730         0.353138   
     29. A(C   0,C   1,C   2)          120.3068         0.429898   
     30. A(C   2,C   1,H  14)          120.2201         0.352608   
     31. A(C   3,C   2,O  12)          119.5692         0.433867   
     32. A(C   1,C   2,O  12)          120.8614         0.432737   
     33. A(C   1,C   2,C   3)          119.5689         0.430330   
     34. A(C   2,C   3,C   4)          120.2387         0.431214   
     35. A(C   2,C   3,H  15)          120.0898         0.353498   
     36. A(C   4,C   3,H  15)          119.6715         0.353314   
     37. A(C   3,C   4,C   5)          120.8760         0.428394   
     38. A(C   3,C   4,H  16)          118.8874         0.353173   
     39. A(C   5,C   4,H  16)          120.2342         0.351179   
     40. A(C   0,C   5,C   6)          124.0656         0.394541   
     41. A(C   0,C   5,C   4)          118.4074         0.424688   
     42. A(C   4,C   5,C   6)          117.4931         0.395583   
     43. A(C   5,C   6,H  18)          109.6705         0.321841   
     44. A(C   7,C   6,H  17)          108.9707         0.316090   
     45. A(C   5,C   6,H  17)          104.7449         0.321894   
     46. A(H  17,C   6,H  18)          106.8181         0.283328   
     47. A(C   5,C   6,C   7)          119.0511         0.361095   
     48. A(C   7,C   6,H  18)          107.0019         0.316038   
     49. A(C   6,C   7,H  19)          109.9190         0.316788   
     50. A(C   8,C   7,N  11)          109.8257         0.367307   
     51. A(C   6,C   7,N  11)          107.8046         0.363713   
     52. A(C   6,C   7,C   8)          112.4605         0.357785   
     53. A(N  11,C   7,H  19)          106.2652         0.324858   
     54. A(C   8,C   7,H  19)          110.3461         0.319768   
     55. A(O   9,C   8,O  10)          117.4947         0.474119   
     56. A(C   7,C   8,O  10)          123.0098         0.395981   
     57. A(C   7,C   8,O   9)          119.4950         0.430611   
     58. A(C   8,O  10,H  20)          124.5857         0.372802   
     59. A(H  21,N  11,H  22)          109.2761         0.290582   
     60. A(C   7,N  11,H  22)          110.1326         0.328516   
     61. A(C   7,N  11,H  21)          110.8603         0.328396   
     62. A(C   2,O  12,H  23)          122.1137         0.371505   
     63. D(C   2,C   1,C   0,H  13)    179.1470         0.025367   
     64. D(H  14,C   1,C   0,H  13)     -0.6912         0.025367   
     65. D(H  14,C   1,C   0,C   5)    179.6844         0.025367   
     66. D(C   2,C   1,C   0,C   5)     -0.4774         0.025367   
     67. D(C   3,C   2,C   1,H  14)    179.3586         0.024896   
     68. D(C   3,C   2,C   1,C   0)     -0.4784         0.024896   
     69. D(O  12,C   2,C   1,C   0)    179.7796         0.024896   
     70. D(O  12,C   2,C   1,H  14)     -0.3834         0.024896   
     71. D(H  15,C   3,C   2,O  12)      0.1401         0.025670   
     72. D(H  15,C   3,C   2,C   1)   -179.6053         0.025670   
     73. D(C   4,C   3,C   2,O  12)   -179.8598         0.025670   
     74. D(C   4,C   3,C   2,C   1)      0.3948         0.025670   
     75. D(C   5,C   4,C   3,H  15)   -179.3507         0.025503   
     76. D(H  16,C   4,C   3,C   2)   -179.9185         0.025503   
     77. D(C   5,C   4,C   3,C   2)      0.6492         0.025503   
     78. D(H  16,C   4,C   3,H  15)      0.0816         0.025503   
     79. D(C   6,C   5,C   4,H  16)      1.0314         0.023767   
     80. D(C   0,C   5,C   4,H  16)    179.0019         0.023767   
     81. D(C   0,C   5,C   4,C   3)     -1.5734         0.023767   
     82. D(C   6,C   5,C   0,H  13)     -0.2963         0.023030   
     83. D(C   4,C   5,C   0,H  13)   -178.1230         0.023030   
     84. D(C   6,C   5,C   4,C   3)   -179.5440         0.023767   
     85. D(C   4,C   5,C   0,C   1)      1.4853         0.023030   
     86. D(C   6,C   5,C   0,C   1)    179.3120         0.023030   
     87. D(H  18,C   6,C   5,C   4)    -44.2391         0.011198   
     88. D(H  18,C   6,C   5,C   0)    137.9158         0.011198   
     89. D(H  17,C   6,C   5,C   4)     70.0793         0.011198   
     90. D(H  17,C   6,C   5,C   0)   -107.7657         0.011198   
     91. D(C   7,C   6,C   5,C   4)   -167.8661         0.011198   
     92. D(C   7,C   6,C   5,C   0)     14.2889         0.011198   
     93. D(C   8,C   7,C   6,C   5)     76.5634         0.009711   
     94. D(H  19,C   7,C   6,H  17)     73.1198         0.009711   
     95. D(H  19,C   7,C   6,C   5)    -46.8020         0.009711   
     96. D(N  11,C   7,C   6,H  18)     72.8520         0.009711   
     97. D(N  11,C   7,C   6,H  17)    -42.3014         0.009711   
     98. D(N  11,C   7,C   6,C   5)   -162.2231         0.009711   
     99. D(C   8,C   7,C   6,H  18)    -48.3614         0.009711   
    100. D(H  19,C   7,C   6,H  18)   -171.7268         0.009711   
    101. D(C   8,C   7,C   6,H  17)   -163.5148         0.009711   
    102. D(O  10,C   8,C   7,H  19)     60.9265         0.010120   
    103. D(O  10,C   8,C   7,N  11)    177.7495         0.010120   
    104. D(O  10,C   8,C   7,C   6)    -62.2000         0.010120   
    105. D(O   9,C   8,C   7,H  19)   -118.8057         0.010120   
    106. D(O   9,C   8,C   7,N  11)     -1.9827         0.010120   
    107. D(O   9,C   8,C   7,C   6)    118.0677         0.010120   
    108. D(H  20,O  10,C   8,O   9)    179.1067         0.030937   
    109. D(H  20,O  10,C   8,C   7)     -0.6305         0.030937   
    110. D(H  22,N  11,C   7,H  19)     58.4489         0.015017   
    111. D(H  22,N  11,C   7,C   8)    -60.9046         0.015017   
    112. D(H  22,N  11,C   7,C   6)    176.2529         0.015017   
    113. D(H  21,N  11,C   7,H  19)    179.5109         0.015017   
    114. D(H  21,N  11,C   7,C   8)     60.1575         0.015017   
    115. D(H  21,N  11,C   7,C   6)    -62.6850         0.015017   
    116. D(H  23,O  12,C   2,C   3)    179.8221         0.031462   
    117. D(H  23,O  12,C   2,C   1)     -0.4359         0.031462   
    -----------------------------------------------------------------

Number of atoms                         .... 24
Number of degrees of freedom            .... 117

         *************************************************************
         *                GEOMETRY OPTIMIZATION CYCLE   1            *
         *************************************************************
---------------------------------
CARTESIAN COORDINATES (ANGSTROEM)
---------------------------------
  C     -0.478910    1.185330    0.266910
  C      0.911700    1.121560    0.397640
  C      1.584360   -0.092470    0.209530
  C      0.855950   -1.243230   -0.100080
  C     -0.534220   -1.182610   -0.229620
  C     -1.222170    0.033250   -0.065340
  C     -2.734610    0.009070   -0.212650
  C     -3.501710    1.351570   -0.323070
  C     -3.373040    1.987650   -1.713600
  O     -4.374820    2.158780   -2.391880
  O     -2.191580    2.380700   -2.236330
  N     -4.914980    1.086940   -0.025330
  O      2.925380   -0.165800    0.328510
  H     -0.953930    2.139900    0.435040
  H      1.464940    2.018060    0.648220
  H      1.366720   -2.187480   -0.240960
  H     -1.077570   -2.088820   -0.468960
  H     -3.097600   -0.542330    0.683020
  H     -3.014790   -0.599860   -1.101100
  H     -3.146360    2.055040    0.457110
  H     -1.345500    2.305960   -1.788380
  H     -5.327860    0.431190   -0.729370
  H     -5.457150    1.981890   -0.027260
  H      3.466340    0.608620    0.539330

----------------------------
CARTESIAN COORDINATES (A.U.)
----------------------------
  NO LB      ZA    FRAG     MASS         X           Y           Z
   0 C     6.0000    0    12.011   -0.905009    2.239949    0.504387
   1 C     6.0000    0    12.011    1.722863    2.119441    0.751431
   2 C     6.0000    0    12.011    2.994006   -0.174743    0.395954
   3 C     6.0000    0    12.011    1.617511   -2.349364   -0.189124
   4 C     6.0000    0    12.011   -1.009529   -2.234809   -0.433919
   5 C     6.0000    0    12.011   -2.309567    0.062833   -0.123475
   6 C     6.0000    0    12.011   -5.167664    0.017140   -0.401850
   7 C     6.0000    0    12.011   -6.617273    2.554097   -0.610514
   8 C     6.0000    0    12.011   -6.374122    3.756114   -3.238235
   9 O     8.0000    0    15.999   -8.267212    4.079503   -4.519998
  10 O     8.0000    0    15.999   -4.141486    4.498871   -4.226051
  11 N     7.0000    0    14.007   -9.287966    2.054019   -0.047867
  12 O     8.0000    0    15.999    5.528167   -0.313317    0.620794
  13 H     1.0000    0     1.008   -1.802666    4.043825    0.822106
  14 H     1.0000    0     1.008    2.768335    3.813581    1.224958
  15 H     1.0000    0     1.008    2.582727   -4.133738   -0.455348
  16 H     1.0000    0     1.008   -2.036312   -3.947298   -0.886206
  17 H     1.0000    0     1.008   -5.853616   -1.024855    1.290721
  18 H     1.0000    0     1.008   -5.697127   -1.133571   -2.080777
  19 H     1.0000    0     1.008   -5.945759    3.883463    0.863813
  20 H     1.0000    0     1.008   -2.542627    4.357633   -3.379548
  21 H     1.0000    0     1.008  -10.068196    0.814831   -1.378310
  22 H     1.0000    0     1.008  -10.312519    3.745229   -0.051514
  23 H     1.0000    0     1.008    6.550433    1.150125    1.019186

--------------------------------
INTERNAL COORDINATES (ANGSTROEM)
--------------------------------
 C      0   0   0     0.000000000000     0.00000000     0.00000000
 C      1   0   0     1.398196380306     0.00000000     0.00000000
 C      2   1   0     1.400616181757   120.30677571     0.00000000
 C      3   2   1     1.396670346861   119.56891311   359.52164385
 C      4   3   2     1.397507790640   120.23866530     0.39483427
 C      5   4   3     1.406619586278   120.87596248     0.64921828
 C      6   5   4     1.519789347936   117.49314964   180.45604630
 C      7   6   5     1.550142327788   119.05114923   192.13394618
 C      8   7   6     1.534512110151   112.46046113    76.56342114
 O      9   8   7     1.221847946227   119.49498510   118.06772755
 O      9   8   7     1.350400935648   123.00978728   297.79997696
 N      8   7   6     1.468335873498   107.80462837   197.77685753
 O      3   2   1     1.348283415940   120.86141488   179.77963215
 H      1   2   3     1.079405198338   117.61049640   179.14696569
 H      2   1   3     1.082855984884   119.47295960   180.16179897
 H      4   3   2     1.082747075637   120.08984245   180.39472451
 H      5   4   3     1.083387937075   118.88738626   180.08151561
 H      7   6   5     1.112667267875   104.74493191    70.07933236
 H      7   6   5     1.112942037934   109.67054922   315.76085781
 H      8   7   6     1.108974524414   109.91901097   313.19803105
 H     11   9   8     0.960258630005   124.58571411   359.36945391
 H     12   8   7     1.046971956883   110.86033076   297.31497214
 H     12   8   7     1.046368738208   110.13262350   176.25291894
 H     13   3   2     0.967889007273   122.11369335   359.56407212

---------------------------
INTERNAL COORDINATES (A.U.)
---------------------------
 C      0   0   0     0.000000000000     0.00000000     0.00000000
 C      1   0   0     2.642208240218     0.00000000     0.00000000
 C      2   1   0     2.646781002259   120.30677571     0.00000000
 C      3   2   1     2.639324454936   119.56891311   359.52164385
 C      4   3   2     2.640906994331   120.23866530     0.39483427
 C      5   4   3     2.658125792674   120.87596248     0.64921828
 C      6   5   4     2.871985648850   117.49314964   180.45604630
 C      7   6   5     2.929344468119   119.05114923   192.13394618
 C      8   7   6     2.899807637371   112.46046113    76.56342114
 O      9   8   7     2.308957995664   119.49498510   118.06772755
 O      9   8   7     2.551887939366   123.00978728   297.79997696
 N      8   7   6     2.774752673523   107.80462837   197.77685753
 O      3   2   1     2.547886407035   120.86141488   179.77963215
 H      1   2   3     2.039780212391   117.61049640   179.14696569
 H      2   1   3     2.046301253909   119.47295960   180.16179897
 H      4   3   2     2.046095445258   120.08984245   180.39472451
 H      5   4   3     2.047306497866   118.88738626   180.08151561
 H      7   6   5     2.102636414462   104.74493191    70.07933236
 H      7   6   5     2.103155654623   109.67054922   315.76085781
 H      8   7   6     2.095658140639   109.91901097   313.19803105
 H     11   9   8     1.814625828445   124.58571411   359.36945391
 H     12   8   7     1.978490268405   110.86033076   297.31497214
 H     12   8   7     1.977350350311   110.13262350   176.25291894
 H     13   3   2     1.829045151779   122.11369335   359.56407212

---------------------
BASIS SET INFORMATION
---------------------
There are 4 groups of distinct atoms

 Group   1 Type C   : 7s4p1d contracted to 3s2p1d pattern {511/31/1}
 Group   2 Type O   : 7s4p1d contracted to 3s2p1d pattern {511/31/1}
 Group   3 Type N   : 7s4p1d contracted to 3s2p1d pattern {511/31/1}
 Group   4 Type H   : 4s1p contracted to 2s1p pattern {31/1}

Atom   0C    basis set group =>   1
Atom   1C    basis set group =>   1
Atom   2C    basis set group =>   1
Atom   3C    basis set group =>   1
Atom   4C    basis set group =>   1
Atom   5C    basis set group =>   1
Atom   6C    basis set group =>   1
Atom   7C    basis set group =>   1
Atom   8C    basis set group =>   1
Atom   9O    basis set group =>   2
Atom  10O    basis set group =>   2
Atom  11N    basis set group =>   3
Atom  12O    basis set group =>   2
Atom  13H    basis set group =>   4
Atom  14H    basis set group =>   4
Atom  15H    basis set group =>   4
Atom  16H    basis set group =>   4
Atom  17H    basis set group =>   4
Atom  18H    basis set group =>   4
Atom  19H    basis set group =>   4
Atom  20H    basis set group =>   4
Atom  21H    basis set group =>   4
Atom  22H    basis set group =>   4
Atom  23H    basis set group =>   4
-------------------------
ECP PARAMETER INFORMATION
-------------------------



------------------------------------------------------------------------------
                           ORCA GTO INTEGRAL CALCULATION
------------------------------------------------------------------------------

                         BASIS SET STATISTICS AND STARTUP INFO

 # of primitive gaussian shells          ...  211
 # of primitive gaussian functions       ...  389
 # of contracted shells                  ...  111
 # of contracted basis functions         ...  237
 Highest angular momentum                ...    2
 Maximum contraction depth               ...    5
 Integral package used                   ... LIBINT
 Integral threshhold            Thresh   ... 2.500e-011
 Primitive cut-off              TCut     ... 2.500e-012


------------------------------ INTEGRAL EVALUATION ----------------------------


 * One electron integrals 

   ECP integrals                          Pre-screening matrix                    ... done
 Shell pair data                         ... done (   0.007 sec)

Timings:
 Total evaluation time               ...     0.007 sec (   0.000 min)
 One electron matrix time            ...     0.029 sec (   0.000 min) =414.3%
 Schwartz matrix evaluation time     ...     0.105 sec (   0.002 min) =1500.0%

-------------------------------------------------------------------------------
                                 ORCA SCF
-------------------------------------------------------------------------------

------------
SCF SETTINGS
------------
Hamiltonian:
 Density Functional     Method          .... DFT(GTOs)
 Exchange Functional    Exchange        .... PBE
   PBE kappa parameter   XKappa         ....  0.804000
   PBE mue parameter    XMuePBE         ....  0.219520
 Correlation Functional Correlation     .... PBE
   PBE beta parameter  CBetaPBE         ....  0.066725
 LDA part of GGA corr.  LDAOpt          .... PW91-LDA
 Gradients option       PostSCFGGA      .... off
 Hybrid DFT is turned on
   Fraction HF Exchange ScalHFX         ....  0.250000
   Scaling of DF-GGA-X  ScalDFX         ....  0.750000
   Scaling of DF-GGA-C  ScalDFC         ....  1.000000
   Scaling of DF-LDA-C  ScalLDAC        ....  1.000000
   Perturbative correction              ....  0.000000
   NL short-range parameter             ....  6.900000


General Settings:
 Integral files         IntName         .... tyrosine
 Hartree-Fock type      HFTyp           .... RHF
 Total Charge           Charge          ....    0
 Multiplicity           Mult            ....    1
 Number of Electrons    NEL             ....   96
 Basis Dimension        Dim             ....  237
 Nuclear Repulsion      ENuc            ....    768.4745255353 Eh

Convergence Acceleration:
 DIIS                   CNVDIIS         .... on
   Start iteration      DIISMaxIt       ....    12
   Startup error        DIISStart       ....  0.200000
   # of expansion vecs  DIISMaxEq       ....     5
   Bias factor          DIISBfac        ....   1.050
   Max. coefficient     DIISMaxC        ....  10.000
 Newton-Raphson         CNVNR           .... off
 SOSCF                  CNVSOSCF        .... on
   Start iteration      SOSCFMaxIt      ....   150
   Startup grad/error   SOSCFStart      ....  0.003300
 Level Shifting         CNVShift        .... on
   Level shift para.    LevelShift      ....    0.2500
   Turn off err/grad.   ShiftErr        ....    0.0010
 Zerner damping         CNVZerner       .... off
 Static damping         CNVDamp         .... on
   Fraction old density DampFac         ....    0.7000
   Max. Damping (<1)    DampMax         ....    0.9800
   Min. Damping (>=0)   DampMin         ....    0.0000
   Turn off err/grad.   DampErr         ....    0.1000
 Fernandez-Rico         CNVRico         .... off

SCF Procedure:
 Maximum # iterations   MaxIter         ....   125
 SCF integral mode      SCFMode         .... Direct
   Integral package                     .... LIBINT
 Reset frequeny         DirectResetFreq ....    20
 Integral Threshold     Thresh          .... 2.500e-011 Eh
 Primitive CutOff       TCut            .... 2.500e-012 Eh

Convergence Tolerance:
 Convergence Check Mode ConvCheckMode   .... Total+1el-Energy
 Convergence forced     ConvForced      .... 0
 Energy Change          TolE            .... 1.000e-008 Eh
 1-El. energy change                    .... 1.000e-005 Eh
 Orbital Gradient       TolG            .... 1.000e-005
 Orbital Rotation angle TolX            .... 1.000e-005
 DIIS Error             TolErr          .... 5.000e-007


Diagonalization of the overlap matrix:
Smallest eigenvalue                        ... 2.622e-004
Time for diagonalization                   ...    0.011 sec
Threshold for overlap eigenvalues          ... 1.000e-008
Number of eigenvalues below threshold      ... 0
Time for construction of square roots      ...    0.007 sec
Total time needed                          ...    0.018 sec

-------------------
DFT GRID GENERATION
-------------------

General Integration Accuracy     IntAcc      ...  4.340
Radial Grid Type                 RadialGrid  ... Gauss-Chebyshev
Angular Grid (max. acc.)         AngularGrid ... Lebedev-110
Angular grid pruning method      GridPruning ... 3 (G Style)
Weight generation scheme         WeightScheme... Becke
Basis function cutoff            BFCut       ...   1.0000e-011
Integration weight cutoff        WCut        ...   1.0000e-014
Grids for H and He will be reduced by one unit

# of grid points (after initial pruning)     ...  30488 (   0.0 sec)
# of grid points (after weights+screening)   ...  27827 (   0.1 sec)
nearest neighbour list constructed           ...    0.0 sec
Grid point re-assignment to atoms done       ...    0.0 sec
Grid point division into batches done        ...    0.0 sec
Reduced shell lists constructed in    0.2 sec

Total number of grid points                  ...    27827
Total number of batches                      ...      450
Average number of points per batch           ...       61
Average number of grid points per atom       ...     1159
Average number of shells per batch           ...    67.33 (60.66%)
Average number of basis functions per batch  ...   138.21 (58.32%)
Average number of large shells per batch     ...    49.14 (72.98%)
Average number of large basis fcns per batch ...    99.62 (72.08%)
Maximum spatial batch extension              ...  17.14, 20.10, 25.60 au
Average spatial batch extension              ...   3.24,  3.72,  3.87 au

Time for grid setup =    0.291 sec

------------------------------
INITIAL GUESS: MODEL POTENTIAL
------------------------------
Loading Hartree-Fock densities                     ... done
Calculating cut-offs                               ... done
Setting up the integral package                    ... done
Initializing the effective Hamiltonian             ... done
Starting the Coulomb interaction                   ... done (   0.2 sec)
Reading the grid                                   ... done
Mapping shells                                     ... done
Starting the XC term evaluation                    ... done (   0.3 sec)
  promolecular density results
     # of electrons  =     95.999248394
     EX              =    -80.259371365
     EC              =     -3.212825994
     EX+EC           =    -83.472197359
Transforming the Hamiltonian                       ... done (   0.0 sec)
Diagonalizing the Hamiltonian                      ... done (   0.0 sec)
Back transforming the eigenvectors                 ... done (   0.0 sec)
Now organizing SCF variables                       ... done
                      ------------------
                      INITIAL GUESS DONE (   0.8 sec)
                      ------------------
--------------
SCF ITERATIONS
--------------
ITER       Energy         Delta-E        Max-DP      RMS-DP      [F,P]     Damp
               ***  Starting incremental Fock matrix formation  ***
  0   -628.4776834629   0.000000000000 0.10106807  0.00231979  0.2565952 0.7000
  1   -628.6432520123  -0.165568549393 0.06838130  0.00152109  0.1058894 0.7000
                               ***Turning on DIIS***
  2   -628.7071975351  -0.063945522757 0.06379240  0.00239655  0.0367786 0.0000
  3   -628.8109126181  -0.103715083002 0.05909388  0.00102957  0.0585313 0.0000
  4   -628.8314535308  -0.020540912707 0.01392698  0.00029333  0.0144655 0.0000
  5   -628.8327438605  -0.001290329758 0.00434672  0.00009409  0.0059158 0.0000
                      *** Initiating the SOSCF procedure ***
                           *** Shutting down DIIS ***
                      *** Re-Reading the Fockian *** 
                      *** Removing any level shift *** 
ITER      Energy       Delta-E        Grad      Rot      Max-DP    RMS-DP
  6   -628.83282253  -0.0000786672  0.000281  0.000281  0.001003  0.000033
               *** Restarting incremental Fock matrix formation ***
  7   -628.83282995  -0.0000074253  0.000137  0.000364  0.000617  0.000019
  8   -628.83282993   0.0000000208  0.000320  0.000423  0.000459  0.000009
  9   -628.83283118  -0.0000012508  0.000078  0.000156  0.000187  0.000005
 10   -628.83283112   0.0000000612  0.000086  0.000082  0.000118  0.000003
 11   -628.83283124  -0.0000001211  0.000008  0.000018  0.000040  0.000001
 12   -628.83283124   0.0000000005  0.000009  0.000015  0.000019  0.000001
                  ***Gradient check signals convergence***
              ***Rediagonalizing the Fockian in SOSCF/NRSCF***

               *****************************************************
               *                     SUCCESS                       *
               *           SCF CONVERGED AFTER  13 CYCLES          *
               *****************************************************

Setting up the final grid:

General Integration Accuracy     IntAcc      ...  4.670
Radial Grid Type                 RadialGrid  ... Gauss-Chebyshev
Angular Grid (max. acc.)         AngularGrid ... Lebedev-302
Angular grid pruning method      GridPruning ... 3 (G Style)
Weight generation scheme         WeightScheme... Becke
Basis function cutoff            BFCut       ...   1.0000e-011
Integration weight cutoff        WCut        ...   1.0000e-014
Grids for H and He will be reduced by one unit

# of grid points (after initial pruning)     ... 118090 (   0.0 sec)
# of grid points (after weights+screening)   ... 105631 (   0.3 sec)
nearest neighbour list constructed           ...    0.0 sec
Grid point re-assignment to atoms done       ...    0.0 sec
Grid point division into batches done        ...    0.3 sec
Reduced shell lists constructed in    0.8 sec

Total number of grid points                  ...   105631
Total number of batches                      ...     1664
Average number of points per batch           ...       63
Average number of grid points per atom       ...     4401
Average number of shells per batch           ...    61.43 (55.34%)
Average number of basis functions per batch  ...   125.12 (52.79%)
Average number of large shells per batch     ...    44.09 (71.77%)
Average number of large basis fcns per batch ...    88.61 (70.82%)
Maximum spatial batch extension              ...  19.07, 18.19, 21.23 au
Average spatial batch extension              ...   2.22,  2.31,  2.38 au

Final grid set up in    1.2 sec
Final integration                            ... done (   1.1 sec)
Change in XC energy                          ...     0.000384994
Integrated number of electrons               ...    95.999973310
Previous integrated no of electrons          ...    96.001736176

----------------
TOTAL SCF ENERGY
----------------

Total Energy       :         -628.83244625 Eh          -17111.40079 eV

Components:
Nuclear Repulsion  :          768.47452554 Eh           20911.25495 eV
Electronic Energy  :        -1397.30697179 Eh          -38022.65574 eV
One Electron Energy:        -2380.92544751 Eh          -64788.27520 eV
Two Electron Energy:          983.61847573 Eh           26765.61946 eV

Virial components:
Potential Energy   :        -1251.71942711 Eh          -34061.01724 eV
Kinetic Energy     :          622.88698086 Eh           16949.61645 eV
Virial Ratio       :            2.00954501


DFT components:
N(Alpha)           :       47.999986654953 electrons
N(Beta)            :       47.999986654953 electrons
N(Total)           :       95.999973309906 electrons
E(X)               :      -61.149429489826 Eh       
E(C)               :       -3.241146424606 Eh       
E(XC)              :      -64.390575914432 Eh       

---------------
SCF CONVERGENCE
---------------

  Last Energy change         ...  -2.7921e-009  Tolerance :  1.0000e-008
  Last MAX-Density change    ...   5.8892e-006  Tolerance :  1.0000e-007
  Last RMS-Density change    ...   1.4712e-007  Tolerance :  5.0000e-009
  Last Orbital Gradient      ...   1.6209e-006  Tolerance :  1.0000e-005
  Last Orbital Rotation      ...   6.4265e-006  Tolerance :  1.0000e-005

             **** THE GBW FILE WAS UPDATED (tyrosine.gbw) ****
             **** DENSITY FILE WAS UPDATED (tyrosine.scfp.tmp) ****
             **** ENERGY FILE WAS UPDATED (tyrosine.en.tmp) ****
----------------
ORBITAL ENERGIES
----------------

  NO   OCC          E(Eh)            E(eV) 
   0   2.0000     -19.249609      -523.8085 
   1   2.0000     -19.246578      -523.7260 
   2   2.0000     -19.187530      -522.1192 
   3   2.0000     -14.374807      -391.1584 
   4   2.0000     -10.359244      -281.8894 
   5   2.0000     -10.312210      -280.6095 
   6   2.0000     -10.286502      -279.9099 
   7   2.0000     -10.258690      -279.1531 
   8   2.0000     -10.257406      -279.1182 
   9   2.0000     -10.256093      -279.0825 
  10   2.0000     -10.251672      -278.9622 
  11   2.0000     -10.250894      -278.9410 
  12   2.0000     -10.247084      -278.8373 
  13   2.0000      -1.108518       -30.1643 
  14   2.0000      -1.085778       -29.5455 
  15   2.0000      -1.021190       -27.7880 
  16   2.0000      -0.902701       -24.5638 
  17   2.0000      -0.884262       -24.0620 
  18   2.0000      -0.801527       -21.8106 
  19   2.0000      -0.779651       -21.2154 
  20   2.0000      -0.738005       -20.0821 
  21   2.0000      -0.680873       -18.5275 
  22   2.0000      -0.654208       -17.8019 
  23   2.0000      -0.645482       -17.5645 
  24   2.0000      -0.615715       -16.7545 
  25   2.0000      -0.584576       -15.9071 
  26   2.0000      -0.546208       -14.8631 
  27   2.0000      -0.525756       -14.3066 
  28   2.0000      -0.508654       -13.8412 
  29   2.0000      -0.478900       -13.0315 
  30   2.0000      -0.465549       -12.6682 
  31   2.0000      -0.460327       -12.5261 
  32   2.0000      -0.454382       -12.3644 
  33   2.0000      -0.448409       -12.2018 
  34   2.0000      -0.442461       -12.0400 
  35   2.0000      -0.432027       -11.7560 
  36   2.0000      -0.424017       -11.5381 
  37   2.0000      -0.401122       -10.9151 
  38   2.0000      -0.391929       -10.6649 
  39   2.0000      -0.376765       -10.2523 
  40   2.0000      -0.372189       -10.1278 
  41   2.0000      -0.356777        -9.7084 
  42   2.0000      -0.349407        -9.5079 
  43   2.0000      -0.324029        -8.8173 
  44   2.0000      -0.285473        -7.7681 
  45   2.0000      -0.279358        -7.6017 
  46   2.0000      -0.252257        -6.8643 
  47   2.0000      -0.241151        -6.5620 
  48   0.0000      -0.024842        -0.6760 
  49   0.0000      -0.003942        -0.1073 
  50   0.0000       0.012416         0.3379 
  51   0.0000       0.049536         1.3479 
  52   0.0000       0.060809         1.6547 
  53   0.0000       0.073327         1.9953 
  54   0.0000       0.080680         2.1954 
  55   0.0000       0.092339         2.5127 
  56   0.0000       0.109873         2.9898 
  57   0.0000       0.121944         3.3183 
  58   0.0000       0.129262         3.5174 
  59   0.0000       0.144686         3.9371 
  60   0.0000       0.158827         4.3219 
  61   0.0000       0.169476         4.6117 
  62   0.0000       0.184221         5.0129 
  63   0.0000       0.201841         5.4924 
  64   0.0000       0.217911         5.9296 
  65   0.0000       0.241766         6.5788 
  66   0.0000       0.242767         6.6060 
  67   0.0000       0.248846         6.7714 
  68   0.0000       0.290166         7.8958 
  69   0.0000       0.304881         8.2962 
  70   0.0000       0.316095         8.6014 
  71   0.0000       0.322039         8.7631 
  72   0.0000       0.338555         9.2125 
  73   0.0000       0.369097        10.0436 
  74   0.0000       0.391825        10.6621 
  75   0.0000       0.409045        11.1307 
  76   0.0000       0.411459        11.1964 
  77   0.0000       0.434365        11.8197 
  78   0.0000       0.440525        11.9873 
  79   0.0000       0.457344        12.4450 
  80   0.0000       0.468636        12.7522 
  81   0.0000       0.491654        13.3786 
  82   0.0000       0.495584        13.4855 
  83   0.0000       0.501654        13.6507 
  84   0.0000       0.519896        14.1471 
  85   0.0000       0.546320        14.8661 
  86   0.0000       0.553884        15.0719 
  87   0.0000       0.559064        15.2129 
  88   0.0000       0.565910        15.3992 
  89   0.0000       0.584973        15.9179 
  90   0.0000       0.591917        16.1069 
  91   0.0000       0.605792        16.4844 
  92   0.0000       0.616841        16.7851 
  93   0.0000       0.623199        16.9581 
  94   0.0000       0.625175        17.0119 
  95   0.0000       0.641512        17.4564 
  96   0.0000       0.647984        17.6325 
  97   0.0000       0.657850        17.9010 
  98   0.0000       0.661405        17.9977 
  99   0.0000       0.667999        18.1772 
 100   0.0000       0.681567        18.5464 
 101   0.0000       0.684777        18.6337 
 102   0.0000       0.697717        18.9858 
 103   0.0000       0.709674        19.3112 
 104   0.0000       0.719377        19.5753 
 105   0.0000       0.728776        19.8310 
 106   0.0000       0.738909        20.1067 
 107   0.0000       0.746669        20.3179 
 108   0.0000       0.750601        20.4249 
 109   0.0000       0.768605        20.9148 
 110   0.0000       0.785102        21.3637 
 111   0.0000       0.808882        22.0108 
 112   0.0000       0.827649        22.5215 
 113   0.0000       0.843167        22.9437 
 114   0.0000       0.848754        23.0958 
 115   0.0000       0.861708        23.4483 
 116   0.0000       0.915883        24.9224 
 117   0.0000       0.927802        25.2468 
 118   0.0000       0.943452        25.6726 
 119   0.0000       0.976415        26.5696 
 120   0.0000       0.994296        27.0562 
 121   0.0000       1.011942        27.5363 
 122   0.0000       1.024875        27.8883 
 123   0.0000       1.038612        28.2621 
 124   0.0000       1.056922        28.7603 
 125   0.0000       1.077903        29.3312 
 126   0.0000       1.084022        29.4977 
 127   0.0000       1.102357        29.9967 
 128   0.0000       1.117199        30.4005 
 129   0.0000       1.185900        32.2700 
 130   0.0000       1.224800        33.3285 
 131   0.0000       1.234509        33.5927 
 132   0.0000       1.241557        33.7845 
 133   0.0000       1.261764        34.3343 
 134   0.0000       1.264830        34.4178 
 135   0.0000       1.273487        34.6533 
 136   0.0000       1.293005        35.1844 
 137   0.0000       1.299713        35.3670 
 138   0.0000       1.310335        35.6560 
 139   0.0000       1.336661        36.3724 
 140   0.0000       1.342204        36.5232 
 141   0.0000       1.378307        37.5057 
 142   0.0000       1.394964        37.9589 
 143   0.0000       1.441224        39.2177 
 144   0.0000       1.461647        39.7734 
 145   0.0000       1.470189        40.0059 
 146   0.0000       1.529022        41.6068 
 147   0.0000       1.535963        41.7957 
 148   0.0000       1.574576        42.8464 
 149   0.0000       1.583714        43.0951 
 150   0.0000       1.614181        43.9241 
 151   0.0000       1.657381        45.0996 
 152   0.0000       1.672151        45.5016 
 153   0.0000       1.677540        45.6482 
 154   0.0000       1.687258        45.9126 
 155   0.0000       1.709342        46.5136 
 156   0.0000       1.728837        47.0440 
 157   0.0000       1.732617        47.1469 
 158   0.0000       1.736904        47.2636 
 159   0.0000       1.756092        47.7857 
 160   0.0000       1.759016        47.8652 
 161   0.0000       1.770644        48.1817 
 162   0.0000       1.780380        48.4466 
 163   0.0000       1.793507        48.8038 
 164   0.0000       1.795985        48.8712 
 165   0.0000       1.811456        49.2922 
 166   0.0000       1.822327        49.5880 
 167   0.0000       1.834290        49.9136 
 168   0.0000       1.860280        50.6208 
 169   0.0000       1.876090        51.0510 
 170   0.0000       1.880877        51.1813 
 171   0.0000       1.893783        51.5325 
 172   0.0000       1.915034        52.1107 
 173   0.0000       1.948436        53.0196 
 174   0.0000       1.958940        53.3055 
 175   0.0000       1.983137        53.9639 
 176   0.0000       1.992301        54.2133 
 177   0.0000       2.024425        55.0874 
 178   0.0000       2.031769        55.2872 
 179   0.0000       2.060946        56.0812 
 180   0.0000       2.069839        56.3232 
 181   0.0000       2.101633        57.1883 
 182   0.0000       2.119939        57.6865 
 183   0.0000       2.138752        58.1984 
 184   0.0000       2.152243        58.5655 
 185   0.0000       2.158962        58.7483 
 186   0.0000       2.193765        59.6954 
 187   0.0000       2.202065        59.9212 
 188   0.0000       2.226986        60.5994 
 189   0.0000       2.236158        60.8490 
 190   0.0000       2.262779        61.5733 
 191   0.0000       2.280624        62.0589 
 192   0.0000       2.299779        62.5802 
 193   0.0000       2.337600        63.6093 
 194   0.0000       2.344976        63.8100 
 195   0.0000       2.357966        64.1635 
 196   0.0000       2.370541        64.5057 
 197   0.0000       2.377039        64.6825 
 198   0.0000       2.404125        65.4196 
 199   0.0000       2.468882        67.1817 
 200   0.0000       2.501103        68.0585 
 201   0.0000       2.527524        68.7774 
 202   0.0000       2.568770        69.8998 
 203   0.0000       2.611941        71.0745 
 204   0.0000       2.636157        71.7335 
 205   0.0000       2.648371        72.0658 
 206   0.0000       2.663614        72.4806 
 207   0.0000       2.679012        72.8996 
 208   0.0000       2.735078        74.4252 
 209   0.0000       2.758527        75.0633 
 210   0.0000       2.766400        75.2776 
 211   0.0000       2.799922        76.1898 
 212   0.0000       2.830244        77.0149 
 213   0.0000       2.843327        77.3709 
 214   0.0000       2.857531        77.7574 
 215   0.0000       2.860931        77.8499 
 216   0.0000       2.878307        78.3227 
 217   0.0000       2.893541        78.7373 
 218   0.0000       2.933244        79.8176 
 219   0.0000       2.952716        80.3475 
 220   0.0000       2.991527        81.4036 
 221   0.0000       3.023907        82.2847 
 222   0.0000       3.040535        82.7372 
 223   0.0000       3.053818        83.0986 
 224   0.0000       3.079645        83.8014 
 225   0.0000       3.146448        85.6192 
 226   0.0000       3.177484        86.4637 
 227   0.0000       3.235219        88.0348 
 228   0.0000       3.273331        89.0719 
 229   0.0000       3.303032        89.8801 
 230   0.0000       3.380268        91.9818 
 231   0.0000       3.396698        92.4288 
 232   0.0000       3.521582        95.8271 
 233   0.0000       3.652825        99.3984 
 234   0.0000       3.680518       100.1520 
 235   0.0000       3.809979       103.6748 
 236   0.0000       3.861942       105.0888 

                    ********************************
                    * MULLIKEN POPULATION ANALYSIS *
                    ********************************

-----------------------
MULLIKEN ATOMIC CHARGES
-----------------------
   0 C :   -0.084460
   1 C :   -0.067887
   2 C :    0.192734
   3 C :   -0.045744
   4 C :   -0.019556
   5 C :   -0.073211
   6 C :    0.044891
   7 C :   -0.115489
   8 C :    0.227390
   9 O :   -0.245358
  10 O :   -0.204270
  11 N :   -0.249271
  12 O :   -0.240275
  13 H :    0.003787
  14 H :   -0.002292
  15 H :    0.019263
  16 H :    0.013826
  17 H :    0.081387
  18 H :    0.054618
  19 H :    0.067438
  20 H :    0.188301
  21 H :    0.129300
  22 H :    0.128647
  23 H :    0.196229
Sum of atomic charges:   -0.0000000

--------------------------------
MULLIKEN REDUCED ORBITAL CHARGES
--------------------------------
  0 C s       :     3.221516  s :     3.221516
      pz      :     1.017730  p :     2.828169
      px      :     0.918486
      py      :     0.891953
      dz2     :     0.003082  d :     0.034775
      dxz     :     0.006869
      dyz     :     0.003236
      dx2y2   :     0.010539
      dxy     :     0.011049
  1 C s       :     3.196993  s :     3.196993
      pz      :     1.049188  p :     2.838222
      px      :     0.917925
      py      :     0.871109
      dz2     :     0.002706  d :     0.032672
      dxz     :     0.005806
      dyz     :     0.003682
      dx2y2   :     0.008699
      dxy     :     0.011780
  2 C s       :     2.954025  s :     2.954025
      pz      :     0.971122  p :     2.774261
      px      :     0.775151
      py      :     1.027988
      dz2     :     0.006279  d :     0.078980
      dxz     :     0.018559
      dyz     :     0.007015
      dx2y2   :     0.025209
      dxy     :     0.021917
  3 C s       :     3.220286  s :     3.220286
      pz      :     1.021593  p :     2.793060
      px      :     0.887232
      py      :     0.884235
      dz2     :     0.002935  d :     0.032398
      dxz     :     0.005779
      dyz     :     0.003489
      dx2y2   :     0.008347
      dxy     :     0.011848
  4 C s       :     3.215143  s :     3.215143
      pz      :     0.976131  p :     2.769878
      px      :     0.901502
      py      :     0.892245
      dz2     :     0.002587  d :     0.034535
      dxz     :     0.006259
      dyz     :     0.003844
      dx2y2   :     0.010284
      dxy     :     0.011561
  5 C s       :     3.044479  s :     3.044479
      pz      :     1.018690  p :     2.986478
      px      :     1.002397
      py      :     0.965391
      dz2     :     0.003488  d :     0.042255
      dxz     :     0.006953
      dyz     :     0.006400
      dx2y2   :     0.012742
      dxy     :     0.012671
  6 C s       :     3.008988  s :     3.008988
      pz      :     1.024154  p :     2.913079
      px      :     0.913354
      py      :     0.975571
      dz2     :     0.005223  d :     0.033041
      dxz     :     0.005557
      dyz     :     0.007917
      dx2y2   :     0.007936
      dxy     :     0.006408
  7 C s       :     3.107161  s :     3.107161
      pz      :     0.997928  p :     2.952071
      px      :     0.904905
      py      :     1.049237
      dz2     :     0.010109  d :     0.056257
      dxz     :     0.011718
      dyz     :     0.011275
      dx2y2   :     0.011856
      dxy     :     0.011299
  8 C s       :     3.063953  s :     3.063953
      pz      :     0.951132  p :     2.577682
      px      :     0.818296
      py      :     0.808254
      dz2     :     0.029680  d :     0.130975
      dxz     :     0.033893
      dyz     :     0.011469
      dx2y2   :     0.026313
      dxy     :     0.029620
  9 O s       :     3.763756  s :     3.763756
      pz      :     1.569608  p :     4.463644
      px      :     1.453422
      py      :     1.440614
      dz2     :     0.002829  d :     0.017957
      dxz     :     0.005923
      dyz     :     0.001806
      dx2y2   :     0.003529
      dxy     :     0.003870
 10 O s       :     3.665481  s :     3.665481
      pz      :     1.649306  p :     4.527069
      px      :     1.131279
      py      :     1.746485
      dz2     :     0.001346  d :     0.011720
      dxz     :     0.005125
      dyz     :     0.001613
      dx2y2   :     0.001855
      dxy     :     0.001782
 11 N s       :     3.443686  s :     3.443686
      pz      :     1.592144  p :     3.788150
      px      :     1.028616
      py      :     1.167390
      dz2     :     0.002872  d :     0.017435
      dxz     :     0.003783
      dyz     :     0.002796
      dx2y2   :     0.003278
      dxy     :     0.004706
 12 O s       :     3.663529  s :     3.663529
      pz      :     1.797700  p :     4.564397
      px      :     1.254189
      py      :     1.512509
      dz2     :     0.001789  d :     0.012350
      dxz     :     0.002190
      dyz     :     0.001051
      dx2y2   :     0.003942
      dxy     :     0.003378
 13 H s       :     0.971650  s :     0.971650
      pz      :     0.005879  p :     0.024564
      px      :     0.006067
      py      :     0.012617
 14 H s       :     0.978130  s :     0.978130
      pz      :     0.006058  p :     0.024162
      px      :     0.006347
      py      :     0.011757
 15 H s       :     0.956653  s :     0.956653
      pz      :     0.005125  p :     0.024084
      px      :     0.006194
      py      :     0.012765
 16 H s       :     0.962247  s :     0.962247
      pz      :     0.005449  p :     0.023927
      px      :     0.006442
      py      :     0.012036
 17 H s       :     0.895595  s :     0.895595
      pz      :     0.011307  p :     0.023017
      px      :     0.005613
      py      :     0.006097
 18 H s       :     0.922855  s :     0.922855
      pz      :     0.011118  p :     0.022527
      px      :     0.004568
      py      :     0.006841
 19 H s       :     0.912032  s :     0.912032
      pz      :     0.009302  p :     0.020530
      px      :     0.003490
      py      :     0.007738
 20 H s       :     0.740029  s :     0.740029
      pz      :     0.020126  p :     0.071670
      px      :     0.034442
      py      :     0.017103
 21 H s       :     0.827049  s :     0.827049
      pz      :     0.017835  p :     0.043651
      px      :     0.009411
      py      :     0.016405
 22 H s       :     0.827761  s :     0.827761
      pz      :     0.012456  p :     0.043592
      px      :     0.011407
      py      :     0.019729
 23 H s       :     0.733429  s :     0.733429
      pz      :     0.019048  p :     0.070341
      px      :     0.022108
      py      :     0.029185


                     *******************************
                     * LOEWDIN POPULATION ANALYSIS *
                     *******************************

----------------------
LOEWDIN ATOMIC CHARGES
----------------------
   0 C :   -0.053749
   1 C :   -0.077668
   2 C :    0.048701
   3 C :   -0.046629
   4 C :   -0.014982
   5 C :   -0.052037
   6 C :   -0.036468
   7 C :   -0.034592
   8 C :    0.086590
   9 O :   -0.187714
  10 O :   -0.040816
  11 N :   -0.117087
  12 O :   -0.061225
  13 H :    0.022734
  14 H :    0.028785
  15 H :    0.039491
  16 H :    0.035176
  17 H :    0.053509
  18 H :    0.040452
  19 H :    0.038137
  20 H :    0.084815
  21 H :    0.069601
  22 H :    0.071751
  23 H :    0.103225

-------------------------------
LOEWDIN REDUCED ORBITAL CHARGES
-------------------------------
  0 C s       :     2.859934  s :     2.859934
      pz      :     1.004336  p :     3.102905
      px      :     1.056975
      py      :     1.041594
      dz2     :     0.007068  d :     0.090910
      dxz     :     0.014895
      dyz     :     0.006806
      dx2y2   :     0.030511
      dxy     :     0.031629
  1 C s       :     2.861929  s :     2.861929
      pz      :     1.034502  p :     3.128224
      px      :     1.059254
      py      :     1.034468
      dz2     :     0.006486  d :     0.087515
      dxz     :     0.012556
      dyz     :     0.007409
      dx2y2   :     0.027241
      dxy     :     0.033823
  2 C s       :     2.835683  s :     2.835683
      pz      :     0.961319  p :     2.936290
      px      :     0.877701
      py      :     1.097270
      dz2     :     0.013272  d :     0.179325
      dxz     :     0.036976
      dyz     :     0.014623
      dx2y2   :     0.060034
      dxy     :     0.054421
  3 C s       :     2.861023  s :     2.861023
      pz      :     1.006720  p :     3.099522
      px      :     1.055860
      py      :     1.036942
      dz2     :     0.006830  d :     0.086083
      dxz     :     0.012365
      dyz     :     0.006967
      dx2y2   :     0.026414
      dxy     :     0.033508
  4 C s       :     2.859800  s :     2.859800
      pz      :     0.971445  p :     3.064934
      px      :     1.051384
      py      :     1.042105
      dz2     :     0.005988  d :     0.090249
      dxz     :     0.013205
      dyz     :     0.007952
      dx2y2   :     0.029942
      dxy     :     0.033162
  5 C s       :     2.855989  s :     2.855989
      pz      :     0.989935  p :     3.091335
      px      :     1.029650
      py      :     1.071750
      dz2     :     0.007845  d :     0.104714
      dxz     :     0.012815
      dyz     :     0.013737
      dx2y2   :     0.035348
      dxy     :     0.034968
  6 C s       :     2.848784  s :     2.848784
      pz      :     1.070254  p :     3.103098
      px      :     1.012365
      py      :     1.020479
      dz2     :     0.014249  d :     0.084587
      dxz     :     0.012404
      dyz     :     0.019655
      dx2y2   :     0.021165
      dxy     :     0.017115
  7 C s       :     2.860025  s :     2.860025
      pz      :     1.040480  p :     3.045883
      px      :     0.955124
      py      :     1.050278
      dz2     :     0.026012  d :     0.128684
      dxz     :     0.024606
      dyz     :     0.027471
      dx2y2   :     0.025991
      dxy     :     0.024604
  8 C s       :     2.873573  s :     2.873573
      pz      :     1.004649  p :     2.754252
      px      :     0.920063
      py      :     0.829540
      dz2     :     0.064353  d :     0.285584
      dxz     :     0.079287
      dyz     :     0.023256
      dx2y2   :     0.059799
      dxy     :     0.058889
  9 O s       :     3.561610  s :     3.561610
      pz      :     1.611519  p :     4.595894
      px      :     1.545791
      py      :     1.438583
      dz2     :     0.003806  d :     0.030210
      dxz     :     0.012080
      dyz     :     0.002374
      dx2y2   :     0.006843
      dxy     :     0.005107
 10 O s       :     3.397667  s :     3.397667
      pz      :     1.670181  p :     4.618637
      px      :     1.235720
      py      :     1.712736
      dz2     :     0.001784  d :     0.024512
      dxz     :     0.011604
      dyz     :     0.001675
      dx2y2   :     0.005559
      dxy     :     0.003890
 11 N s       :     3.147382  s :     3.147382
      pz      :     1.592822  p :     3.930045
      px      :     1.105456
      py      :     1.231767
      dz2     :     0.005070  d :     0.039660
      dxz     :     0.007355
      dyz     :     0.005482
      dx2y2   :     0.009354
      dxy     :     0.012399
 12 O s       :     3.386591  s :     3.386591
      pz      :     1.765269  p :     4.649706
      px      :     1.313950
      py      :     1.570487
      dz2     :     0.003134  d :     0.024928
      dxz     :     0.003952
      dyz     :     0.001183
      dx2y2   :     0.008392
      dxy     :     0.008266
 13 H s       :     0.904480  s :     0.904480
      pz      :     0.017286  p :     0.072786
      px      :     0.018778
      py      :     0.036721
 14 H s       :     0.899842  s :     0.899842
      pz      :     0.018397  p :     0.071373
      px      :     0.019113
      py      :     0.033862
 15 H s       :     0.888969  s :     0.888969
      pz      :     0.016070  p :     0.071541
      px      :     0.018614
      py      :     0.036856
 16 H s       :     0.895111  s :     0.895111
      pz      :     0.016058  p :     0.069713
      px      :     0.019218
      py      :     0.034437
 17 H s       :     0.879163  s :     0.879163
      pz      :     0.031801  p :     0.067328
      px      :     0.016151
      py      :     0.019376
 18 H s       :     0.893757  s :     0.893757
      pz      :     0.030526  p :     0.065792
      px      :     0.013841
      py      :     0.021424
 19 H s       :     0.894836  s :     0.894836
      pz      :     0.029016  p :     0.067027
      px      :     0.014022
      py      :     0.023989
 20 H s       :     0.727350  s :     0.727350
      pz      :     0.057454  p :     0.187835
      px      :     0.083307
      py      :     0.047074
 21 H s       :     0.815565  s :     0.815565
      pz      :     0.052572  p :     0.114834
      px      :     0.023703
      py      :     0.038558
 22 H s       :     0.813468  s :     0.813468
      pz      :     0.033072  p :     0.114781
      px      :     0.029431
      py      :     0.052279
 23 H s       :     0.717881  s :     0.717881
      pz      :     0.050830  p :     0.178895
      px      :     0.049073
      py      :     0.078991


                      *****************************
                      * MAYER POPULATION ANALYSIS *
                      *****************************

  NA   - Mulliken gross atomic population
  ZA   - Total nuclear charge
  QA   - Mulliken gross atomic charge
  VA   - Mayer's total valence
  BVA  - Mayer's bonded valence
  FA   - Mayer's free valence

  ATOM       NA         ZA         QA         VA         BVA        FA
  0 C      6.0845     6.0000    -0.0845     3.8866     3.8866    -0.0000
  1 C      6.0679     6.0000    -0.0679     3.8255     3.8255     0.0000
  2 C      5.8073     6.0000     0.1927     3.9608     3.9608     0.0000
  3 C      6.0457     6.0000    -0.0457     3.8481     3.8481    -0.0000
  4 C      6.0196     6.0000    -0.0196     3.8915     3.8915    -0.0000
  5 C      6.0732     6.0000    -0.0732     3.8633     3.8633    -0.0000
  6 C      5.9551     6.0000     0.0449     3.8614     3.8614     0.0000
  7 C      6.1155     6.0000    -0.1155     3.9577     3.9577    -0.0000
  8 C      5.7726     6.0000     0.2274     4.2292     4.2292    -0.0000
  9 O      8.2454     8.0000    -0.2454     2.2328     2.2328    -0.0000
 10 O      8.2043     8.0000    -0.2043     2.2119     2.2119     0.0000
 11 N      7.2493     7.0000    -0.2493     3.0824     3.0824    -0.0000
 12 O      8.2403     8.0000    -0.2403     2.1985     2.1985     0.0000
 13 H      0.9962     1.0000     0.0038     0.9984     0.9984     0.0000
 14 H      1.0023     1.0000    -0.0023     0.9940     0.9940    -0.0000
 15 H      0.9807     1.0000     0.0193     0.9961     0.9961     0.0000
 16 H      0.9862     1.0000     0.0138     0.9918     0.9918    -0.0000
 17 H      0.9186     1.0000     0.0814     0.9938     0.9938     0.0000
 18 H      0.9454     1.0000     0.0546     0.9855     0.9855     0.0000
 19 H      0.9326     1.0000     0.0674     0.9745     0.9745    -0.0000
 20 H      0.8117     1.0000     0.1883     1.0361     1.0361     0.0000
 21 H      0.8707     1.0000     0.1293     1.0016     1.0016    -0.0000
 22 H      0.8714     1.0000     0.1286     0.9969     0.9969     0.0000
 23 H      0.8038     1.0000     0.1962     0.9992     0.9992     0.0000

  Mayer bond orders larger than 0.1
B(  0-C ,  1-C ) :   1.3765 B(  0-C ,  5-C ) :   1.3781 B(  0-C , 13-H ) :   0.9749 
B(  1-C ,  2-C ) :   1.3356 B(  1-C , 14-H ) :   0.9818 B(  2-C ,  3-C ) :   1.3410 
B(  2-C , 12-O ) :   1.1640 B(  3-C ,  4-C ) :   1.4014 B(  3-C , 15-H ) :   0.9896 
B(  4-C ,  5-C ) :   1.3865 B(  4-C , 16-H ) :   0.9910 B(  5-C ,  6-C ) :   0.9963 
B(  6-C ,  7-C ) :   1.0332 B(  6-C , 17-H ) :   0.9238 B(  6-C , 18-H ) :   0.9328 
B(  7-C ,  8-C ) :   0.8802 B(  7-C , 11-N ) :   1.1193 B(  7-C , 19-H ) :   0.9063 
B(  8-C ,  9-O ) :   2.1009 B(  8-C , 10-O ) :   1.1908 B( 10-O , 20-H ) :   0.9347 
B( 11-N , 21-H ) :   0.9562 B( 11-N , 22-H ) :   0.9545 B( 12-O , 23-H ) :   0.9462 


-------
TIMINGS
-------

Total SCF time: 0 days 0 hours 1 min 37 sec 

Total time                  ....      97.604 sec
Sum of individual times     ....      97.480 sec  ( 99.9%)

Fock matrix formation       ....      95.325 sec  ( 97.7%)
  XC integration            ....       5.201 sec  (  5.5% of F)
    Basis function eval.    ....       1.505 sec  ( 28.9% of XC)
    Density eval.           ....       1.451 sec  ( 27.9% of XC)
    XC-Functional eval.     ....       0.205 sec  (  3.9% of XC)
    XC-Potential eval.      ....       1.755 sec  ( 33.7% of XC)
Diagonalization             ....       0.056 sec  (  0.1%)
Density matrix formation    ....       0.012 sec  (  0.0%)
Population analysis         ....       0.037 sec  (  0.0%)
Initial guess               ....       0.500 sec  (  0.5%)
Orbital Transformation      ....       0.000 sec  (  0.0%)
Orbital Orthonormalization  ....       0.000 sec  (  0.0%)
DIIS solution               ....       0.020 sec  (  0.0%)
SOSCF solution              ....       0.032 sec  (  0.0%)
Grid generation             ....       1.498 sec  (  1.5%)

-------------------------   --------------------
FINAL SINGLE POINT ENERGY      -628.832446250725
-------------------------   --------------------

------------------------------------------------------------------------------
                         ORCA SCF GRADIENT CALCULATION
------------------------------------------------------------------------------

Gradient of the Kohn-Sham DFT energy:
Kohn-Sham wavefunction type      ... RKS
Hartree-Fock exchange scaling    ...    0.250
Number of operators              ...    1
Number of atoms                  ...   24
Basis set dimensions             ...  237
Integral neglect threshold       ... 2.5e-011
Integral primitive cutoff        ... 2.5e-012

Nuclear repulsion gradient       ... done
One Electron Gradient            
  ECP gradient                   ... done
Pre-screening matrix             ... done
Starting the two electron gradient:
Two electron gradient done
Exchange-correlation gradient    ... done

------------------
CARTESIAN GRADIENT
------------------

   1   C   :   -0.005438660    0.019225053    0.004585470
   2   C   :    0.010473985    0.009015437    0.003092698
   3   C   :   -0.009991183   -0.024476274   -0.006389156
   4   C   :    0.008881800   -0.000830962   -0.000224164
   5   C   :   -0.014478091   -0.016732861   -0.002909655
   6   C   :    0.004333414   -0.004900833    0.005126447
   7   C   :   -0.004149617   -0.002726822   -0.002437189
   8   C   :    0.013787134    0.013443968   -0.006085188
   9   C   :    0.018098352   -0.011148229    0.024057096
  10   O   :   -0.031265864    0.004603135   -0.017122485
  11   O   :    0.012910735   -0.003432099    0.010187476
  12   N   :    0.001465661   -0.004811380    0.001531481
  13   O   :   -0.012041056    0.023199151    0.003721377
  14   H   :    0.006676775   -0.007748786   -0.001594674
  15   H   :   -0.004943983   -0.005470966   -0.001930896
  16   H   :   -0.005525044    0.004426998    0.000326876
  17   H   :    0.004076738    0.004950959    0.001940710
  18   H   :    0.006202796   -0.006674494    0.006574834
  19   H   :   -0.002521995   -0.000957647   -0.005800962
  20   H   :   -0.001990576    0.001013786    0.004179521
  21   H   :    0.004153232    0.010728836   -0.016735425
  22   H   :   -0.008575480   -0.020685945   -0.012092871
  23   H   :   -0.010892392    0.022858894    0.006605343
  24   H   :    0.020753323   -0.002868920    0.001393335

Difference to translation invariance:
           :   -0.0000000000   -0.0000000000    0.0000000000

Norm of the cartesian gradient     ...    0.0917113537
RMS gradient                       ...    0.0108082867
MAX gradient                       ...    0.0312658643

-------
TIMINGS
-------

Total SCF gradient time            ...       35.818 sec

One electron gradient       ....       0.243 sec  (  0.7%)
Prescreening matrices       ....       0.111 sec  (  0.3%)
Two electron gradient       ....      28.639 sec  ( 80.0%)
XC gradient                 ....       6.733 sec  ( 18.8%)
------------------------------------------------------------------------------
                         ORCA GEOMETRY RELAXATION STEP
------------------------------------------------------------------------------

Reading the OPT-File                    .... done
Getting information on internals        .... done
Copying old internal coords+grads       .... done
Making the new internal coordinates     .... (new redundants).... done
Validating the new internal coordinates .... (new redundants).... done
Calculating the B-matrix                .... done
Calculating the G,G- and P matrices     .... done
Transforming gradient to internals      .... done
Projecting the internal gradient        .... done
Number of atoms                         ....  24
Number of internal coordinates          .... 117
Current Energy                          ....  -628.832446251 Eh
Current gradient norm                   ....     0.091711354 Eh/bohr
Maximum allowed component of the step   ....  0.300
Current trust radius                    ....  0.300
Evaluating the initial hessian          ....  (Almloef) done
Projecting the Hessian                  .... done
Forming the augmented Hessian           .... done
Diagonalizing the augmented Hessian     .... done
Last element of RFO vector              ....  0.960989118
Lowest eigenvalues of augmented Hessian:
 -0.021062937  0.009726182  0.010290537  0.011323765  0.015017311
Length of the computed step             ....  0.287814063
The final length of the internal step   ....  0.287814063
Converting the step to cartesian space:
 Initial RMS(Int)=    0.0266084195
Transforming coordinates:
 Iter   0:  RMS(Cart)=    0.1321424398 RMS(Int)=    1.1565899984
 Iter   1:  RMS(Cart)=    0.0081043960 RMS(Int)=    0.0045458866
 Iter   2:  RMS(Cart)=    0.0014575631 RMS(Int)=    0.0006688294
 Iter   3:  RMS(Cart)=    0.0002926671 RMS(Int)=    0.0001687455
 Iter   4:  RMS(Cart)=    0.0000605025 RMS(Int)=    0.0000387543
 Iter   5:  RMS(Cart)=    0.0000130282 RMS(Int)=    0.0000070518
 Iter   6:  RMS(Cart)=    0.0000027736 RMS(Int)=    0.0000020803
 Iter   7:  RMS(Cart)=    0.0000006112 RMS(Int)=    0.0000003048
 Iter   8:  RMS(Cart)=    0.0000001320 RMS(Int)=    0.0000001050
 Iter   9:  RMS(Cart)=    0.0000000292 RMS(Int)=    0.0000000145
done
Storing new coordinates                 .... done

                                .--------------------.
          ----------------------|Geometry convergence|-------------------------
          Item                value                   Tolerance       Converged
          ---------------------------------------------------------------------
          RMS gradient        0.0085418384            0.0001000000      NO
          MAX gradient        0.0357820573            0.0003000000      NO
          RMS step            0.0266084195            0.0020000000      NO
          MAX step            0.0898913156            0.0040000000      NO
          ........................................................
          Max(Bonds)      0.0333      Max(Angles)    5.15
          Max(Dihed)        4.83      Max(Improp)    0.00
          ---------------------------------------------------------------------

The optimization has not yet converged - more geometry cycles are needed


    ---------------------------------------------------------------------------
                         Redundant Internal Coordinates
                            (Angstroem and degrees)

        Definition                    Value    dE/dq     Step     New-Value
    ----------------------------------------------------------------------------
     1. B(C   1,C   0)                1.3982  0.001586 -0.0013    1.3969   
     2. B(C   2,C   1)                1.4006  0.002477 -0.0020    1.3986   
     3. B(C   3,C   2)                1.3967  0.001996 -0.0016    1.3951   
     4. B(C   4,C   3)                1.3975  0.005844 -0.0049    1.3926   
     5. B(C   5,C   4)                1.4066  0.004441 -0.0040    1.4026   
     6. B(C   5,C   0)                1.4107  0.010427 -0.0093    1.4014   
     7. B(C   6,C   5)                1.5198  0.003405 -0.0044    1.5154   
     8. B(C   7,C   6)                1.5501  0.012433 -0.0179    1.5323   
     9. B(C   8,C   7)                1.5345  0.000300 -0.0004    1.5341   
    10. B(O   9,C   8)                1.2218  0.035782 -0.0179    1.2040   
    11. B(O  10,C   8)                1.3504  0.019599 -0.0155    1.3349   
    12. B(N  11,C   7)                1.4683  0.016992 -0.0204    1.4479   
    13. B(O  12,C   2)                1.3483  0.008008 -0.0063    1.3420   
    14. B(H  13,C   0)                1.0794 -0.010040  0.0134    1.0928   
    15. B(H  14,C   1)                1.0829 -0.007504  0.0102    1.0930   
    16. B(H  15,C   3)                1.0827 -0.006509  0.0088    1.0916   
    17. B(H  16,C   4)                1.0834 -0.006613  0.0090    1.0924   
    18. B(H  17,C   6)                1.1127  0.006571 -0.0099    1.1028   
    19. B(H  18,C   6)                1.1129  0.005795 -0.0087    1.1042   
    20. B(H  19,C   7)                1.1090  0.002943 -0.0044    1.1046   
    21. B(H  20,O  10)                0.9603 -0.004975  0.0049    0.9651   
    22. B(H  21,N  11)                1.0470  0.024478 -0.0325    1.0145   
    23. B(H  22,N  11)                1.0464  0.025183 -0.0333    1.0130   
    24. B(H  23,O  12)                0.9679  0.009606 -0.0097    0.9582   
    25. A(C   5,C   0,H  13)          121.81  0.004090   -0.59    121.21   
    26. A(C   1,C   0,H  13)          117.61 -0.000954    0.18    117.79   
    27. A(C   1,C   0,C   5)          120.58 -0.003133    0.41    120.99   
    28. A(C   0,C   1,H  14)          119.47 -0.001314    0.19    119.67   
    29. A(C   0,C   1,C   2)          120.31 -0.000093    0.03    120.34   
    30. A(C   2,C   1,H  14)          120.22  0.001408   -0.22    120.00   
    31. A(C   3,C   2,O  12)          119.57  0.008594   -1.10    118.47   
    32. A(C   1,C   2,O  12)          120.86 -0.011376    1.42    122.28   
    33. A(C   1,C   2,C   3)          119.57  0.002782   -0.32    119.24   
    34. A(C   2,C   3,C   4)          120.24  0.001397   -0.18    120.06   
    35. A(C   2,C   3,H  15)          120.09  0.002171   -0.35    119.74   
    36. A(C   4,C   3,H  15)          119.67 -0.003568    0.53    120.20   
    37. A(C   3,C   4,C   5)          120.88 -0.005067    0.66    121.53   
    38. A(C   3,C   4,H  16)          118.89  0.001564   -0.18    118.71   
    39. A(C   5,C   4,H  16)          120.23  0.003501   -0.48    119.76   
    40. A(C   0,C   5,C   6)          124.07  0.002928   -0.40    123.67   
    41. A(C   0,C   5,C   4)          118.41  0.004099   -0.58    117.83   
    42. A(C   4,C   5,C   6)          117.49 -0.007028    0.97    118.47   
    43. A(C   5,C   6,H  18)          109.67  0.000009   -0.21    109.46   
    44. A(C   7,C   6,H  17)          108.97  0.004888   -1.03    107.94   
    45. A(C   5,C   6,H  17)          104.74 -0.010665    2.33    107.08   
    46. A(H  17,C   6,H  18)          106.82  0.001681   -0.19    106.63   
    47. A(C   5,C   6,C   7)          119.05  0.009071   -1.42    117.63   
    48. A(C   7,C   6,H  18)          107.00 -0.005319    0.59    107.59   
    49. A(C   6,C   7,H  19)          109.92 -0.000777   -0.79    109.13   
    50. A(C   8,C   7,N  11)          109.83 -0.008120    2.43    112.26   
    51. A(C   6,C   7,N  11)          107.80 -0.002791    1.20    109.00   
    52. A(C   6,C   7,C   8)          112.46  0.008422   -1.78    110.68   
    53. A(N  11,C   7,H  19)          106.27  0.001592    0.25    106.51   
    54. A(C   8,C   7,H  19)          110.35  0.001130   -1.13    109.22   
    55. A(O   9,C   8,O  10)          117.49 -0.009044    1.16    118.66   
    56. A(C   7,C   8,O  10)          123.01  0.025512   -3.37    119.64   
    57. A(C   7,C   8,O   9)          119.49 -0.016473    2.22    121.71   
    58. A(C   8,O  10,H  20)          124.59  0.035405   -5.15    119.44   
    59. A(H  21,N  11,H  22)          109.28  0.003563   -2.12    107.15   
    60. A(C   7,N  11,H  22)          110.13 -0.000146   -0.67    109.46   
    61. A(C   7,N  11,H  21)          110.86  0.003578   -1.27    109.59   
    62. A(C   2,O  12,H  23)          122.11  0.034147   -4.98    117.13   
    63. D(C   2,C   1,C   0,H  13)    179.15  0.000451   -0.56    178.58   
    64. D(H  14,C   1,C   0,H  13)     -0.69  0.000227   -0.29     -0.98   
    65. D(H  14,C   1,C   0,C   5)    179.68 -0.000361    0.46    180.14   
    66. D(C   2,C   1,C   0,C   5)     -0.48 -0.000137    0.19     -0.29   
    67. D(C   3,C   2,C   1,H  14)    179.36  0.000089   -0.09    179.27   
    68. D(C   3,C   2,C   1,C   0)     -0.48 -0.000132    0.18     -0.30   
    69. D(O  12,C   2,C   1,C   0)    179.78 -0.000064    0.06    179.84   
    70. D(O  12,C   2,C   1,H  14)     -0.38  0.000157   -0.21     -0.60   
    71. D(H  15,C   3,C   2,O  12)      0.14  0.000030   -0.07      0.07   
    72. D(H  15,C   3,C   2,C   1)   -179.61  0.000149   -0.20   -179.80   
    73. D(C   4,C   3,C   2,O  12)   -179.86 -0.000077    0.08   -179.78   
    74. D(C   4,C   3,C   2,C   1)      0.39  0.000042   -0.05      0.34   
    75. D(C   5,C   4,C   3,H  15)   -179.35  0.000224   -0.31   -179.66   
    76. D(H  16,C   4,C   3,C   2)   -179.92  0.000083   -0.14   -180.05   
    77. D(C   5,C   4,C   3,C   2)      0.65  0.000330   -0.45      0.20   
    78. D(H  16,C   4,C   3,H  15)      0.08 -0.000023    0.01      0.09   
    79. D(C   6,C   5,C   4,H  16)      1.03 -0.000412    0.47      1.50   
    80. D(C   0,C   5,C   4,H  16)    179.00 -0.000383    0.49    179.50   
    81. D(C   0,C   5,C   4,C   3)     -1.57 -0.000646    0.82     -0.76   
    82. D(C   6,C   5,C   0,H  13)     -0.30 -0.000190    0.14     -0.15   
    83. D(C   4,C   5,C   0,H  13)   -178.12 -0.000006    0.09   -178.03   
    84. D(C   6,C   5,C   4,C   3)   -179.54 -0.000674    0.80   -178.75   
    85. D(C   4,C   5,C   0,C   1)      1.49  0.000586   -0.69      0.80   
    86. D(C   6,C   5,C   0,C   1)    179.31  0.000403   -0.64    178.68   
    87. D(H  18,C   6,C   5,C   4)    -44.24  0.000339    0.96    -43.28   
    88. D(H  18,C   6,C   5,C   0)    137.92  0.000299    0.94    138.86   
    89. D(H  17,C   6,C   5,C   4)     70.08 -0.003170    1.84     71.92   
    90. D(H  17,C   6,C   5,C   0)   -107.77 -0.003210    1.82   -105.94   
    91. D(C   7,C   6,C   5,C   4)   -167.87  0.000506    1.46   -166.40   
    92. D(C   7,C   6,C   5,C   0)     14.29  0.000466    1.44     15.73   
    93. D(C   8,C   7,C   6,C   5)     76.56  0.006823   -3.27     73.30   
    94. D(H  19,C   7,C   6,H  17)     73.12 -0.003811    1.29     74.41   
    95. D(H  19,C   7,C   6,C   5)    -46.80 -0.000014    0.02    -46.78   
    96. D(N  11,C   7,C   6,H  18)     72.85 -0.002123    0.32     73.17   
    97. D(N  11,C   7,C   6,H  17)    -42.30 -0.003745    0.75    -41.55   
    98. D(N  11,C   7,C   6,C   5)   -162.22  0.000052   -0.52   -162.74   
    99. D(C   8,C   7,C   6,H  18)    -48.36  0.004648   -2.43    -50.79   
[...]
     70      -0.003305   0.000004  -0.000237  -0.000030  -0.001890  -0.001523
     71      -0.002279  -0.000007  -0.000171   0.000010  -0.001489  -0.001214
                 66         67         68         69         70         71    
      0      -0.015161  -0.001052   0.000003   0.000035  -0.000594  -0.000170
      1       0.021618   0.001559  -0.000003  -0.000023  -0.000598  -0.000064
      2       0.017442   0.001247   0.000006  -0.000021  -0.000638  -0.000061
      3       0.013999   0.000041   0.000001  -0.000004   0.000157   0.001144
      4       0.016673   0.000596  -0.000007   0.000005  -0.000175   0.000590
      5       0.013317   0.000468  -0.000005   0.000011  -0.000148   0.000478
      6       0.000771   0.003213  -0.000019   0.000002  -0.000533   0.000046
      7      -0.001178   0.002663   0.000004  -0.000003   0.000073  -0.001861
      8      -0.000918   0.002133   0.000003  -0.000002  -0.000015  -0.001468
      9      -0.006386   0.042695   0.000001   0.000007   0.000079   0.000536
     10       0.013414  -0.058775   0.000008  -0.000003   0.000172   0.000557
     11       0.010522  -0.045916   0.000005  -0.000007   0.000092   0.000443
     12      -0.037391  -0.014797  -0.000016   0.000029  -0.000561  -0.000156
     13      -0.051124  -0.013971  -0.000004   0.000017   0.000863  -0.000103
     14      -0.040515  -0.011091  -0.000008   0.000012   0.000481  -0.000088
     15      -0.003239  -0.000844   0.000018  -0.000057   0.000860   0.000094
     16       0.000803   0.000958   0.000067  -0.000038  -0.000475  -0.000006
     17       0.000670   0.000781   0.000030   0.000012   0.000406   0.000054
     18      -0.000421  -0.000057   0.000126   0.000015   0.000436  -0.000029
     19      -0.000660  -0.000164  -0.000115   0.000468   0.000079  -0.000033
     20      -0.000298  -0.000069   0.000076   0.000091  -0.000074  -0.000025
     21       0.000141   0.000041   0.000376  -0.000542   0.000294  -0.000007
     22       0.000079   0.000046  -0.001059  -0.001524  -0.000081   0.000023
     23      -0.000013  -0.000001  -0.002541   0.000171   0.000368   0.000006
     24       0.000059   0.000007   0.000038  -0.000007  -0.002779  -0.000050
     25      -0.000044  -0.000010   0.000053   0.000148   0.000411   0.000001
     26      -0.000024  -0.000043  -0.000222  -0.000073  -0.001753  -0.000036
     27      -0.000005   0.000012   0.000271  -0.000047   0.001701   0.000022
     28       0.000008   0.000001  -0.000017  -0.000069  -0.000173  -0.000003
     29      -0.000001   0.000016  -0.000024   0.000117   0.000778   0.000026
     30      -0.000274  -0.000121  -0.000013   0.000101  -0.041055   0.000356
     31       0.000127   0.000036   0.000027  -0.000036   0.012639  -0.000116
     32      -0.000230  -0.000099  -0.000207   0.000153  -0.045345   0.000382
     33       0.000010   0.000011  -0.046013   0.004907   0.000209   0.000024
     34      -0.000064  -0.000029  -0.011437  -0.078507  -0.000053  -0.000016
     35       0.000028   0.000005  -0.035029   0.007728  -0.000332   0.000003
     36      -0.000241  -0.000345   0.000007   0.000001   0.000125  -0.026612
     37       0.000188  -0.000285  -0.000005   0.000008  -0.000420  -0.044287
     38       0.000149  -0.000228  -0.000003   0.000002  -0.000323  -0.034791
     39       0.165128   0.010680   0.000028  -0.000067  -0.000731   0.000629
     40      -0.243103  -0.016092  -0.000097   0.000141   0.001903  -0.000370
     41      -0.196154  -0.012997  -0.000018   0.000167   0.002076  -0.000294
     42      -0.142768  -0.003448   0.000031   0.000018   0.000824  -0.004410
     43      -0.187363  -0.005171   0.000044   0.000003   0.000597  -0.002983
     44      -0.149679  -0.004124   0.000020  -0.000007   0.000665  -0.002342
     45       0.108071  -0.473285   0.000013   0.000034   0.000757   0.000348
     46      -0.155626   0.664417  -0.000035   0.000018  -0.000764   0.000009
     47      -0.121736   0.519121  -0.000008  -0.000004  -0.000331   0.000016
     48       0.435346   0.123250   0.000041  -0.000044  -0.001288  -0.000020
     49       0.580670   0.159254   0.000051  -0.000079  -0.003361   0.000415
     50       0.460432   0.126289   0.000008  -0.000064  -0.001424   0.000329
     51       0.001711   0.000673  -0.000494  -0.000550  -0.001077   0.000333
     52       0.000610   0.000072   0.000161   0.000150   0.000861   0.000048
     53      -0.000365  -0.000329   0.000525  -0.000831  -0.000819  -0.000038
     54       0.007474   0.001194  -0.000980  -0.001368  -0.001220   0.000145
     55       0.008902   0.001167   0.000468  -0.000072  -0.000985   0.000109
     56       0.004714   0.000614  -0.001153  -0.001011  -0.000399   0.000062
     57      -0.000235  -0.000172   0.004191   0.003979  -0.000067  -0.000039
     58      -0.000397  -0.000198   0.009578   0.007329  -0.000895   0.000081
     59      -0.000229  -0.000129   0.005212   0.002182  -0.000103  -0.000028
     60       0.003124   0.001567   0.001483  -0.001645   0.653652  -0.005303
     61      -0.001616  -0.000308  -0.000488   0.000393  -0.199671   0.001965
     62       0.003147   0.001409   0.001885  -0.001930   0.727204  -0.006401
     63      -0.000021  -0.000014   0.381326   0.285438  -0.000298  -0.000080
     64       0.000073   0.000046   0.648271   0.453930  -0.000860  -0.000048
     65       0.000003   0.000008   0.288013   0.231927   0.000835  -0.000019
     66       0.000062   0.000066   0.243229  -0.348634  -0.002375   0.000023
     67       0.000211   0.000039  -0.486639   0.641995   0.003180   0.000086
     68      -0.000122   0.000007   0.227544  -0.344448  -0.000339   0.000035
     69      -0.002235  -0.001962   0.000026  -0.000003   0.003049   0.407649
     70      -0.001597   0.000635   0.000103  -0.000015   0.006353   0.716397
     71      -0.001253   0.000481   0.000083  -0.000016   0.005035   0.562674


-----------
IR SPECTRUM
-----------

 Mode    freq (cm**-1)   T**2         TX         TY         TZ
-------------------------------------------------------------------
   6:        37.46    3.556446  (  0.255484  -1.807129  -0.474825)
   7:        40.22    1.847804  ( -0.440471   1.281699  -0.105051)
   8:        63.05    1.758456  (  0.108346   1.301802  -0.228097)
   9:        93.47    5.892852  ( -0.908147   2.172898  -0.588758)
  10:       169.13    1.688422  ( -0.021983   0.778878   1.039850)
  11:       198.72   37.451684  (  0.345386  -6.109918  -0.036035)
  12:       258.99    2.306453  (  0.591052   0.330658  -1.359329)
  13:       305.89    4.921553  (  0.885973   1.863103  -0.815753)
  14:       311.01   11.789720  ( -2.510801  -1.053471   2.091841)
  15:       330.32   15.972946  (  2.987723  -2.258600  -1.394698)
  16:       383.63   12.283295  ( -1.910820   0.202524   2.931049)
  17:       393.69  111.174622  (  0.871001  -7.104926   7.741834)
  18:       426.54    1.291753  ( -1.078695  -0.109615  -0.340815)
  19:       432.62    7.292769  (  2.524338   0.952913   0.111548)
  20:       482.46    8.684277  ( -2.549325   1.468091   0.173003)
  21:       533.01   20.184275  ( -1.047815   3.351749  -2.802167)
  22:       563.96   23.803105  (  0.359280   4.586578  -1.623985)
  23:       580.14   35.564686  (  2.429099  -5.438338   0.297729)
  24:       646.93   29.882085  ( -3.356548   3.337516  -2.734348)
  25:       653.78    1.113969  (  0.071050  -0.768600   0.719844)
  26:       731.69    0.510184  ( -0.689951   0.139642   0.121046)
  27:       745.88    2.831534  (  0.523410  -0.666225   1.453864)
  28:       802.45   10.352200  ( -2.272042   1.524068  -1.693293)
  29:       820.97    4.868592  (  0.896093   2.014960   0.074459)
  30:       832.62    8.357450  (  0.255430   1.360811  -2.537794)
  31:       861.57   37.811318  (  1.395838   2.960248  -5.205755)
  32:       878.69    6.226432  ( -2.147127   0.909326  -0.888483)
  33:       927.57  113.656062  ( -6.983559   0.903360   8.004368)
  34:       965.18    5.235900  ( -1.733735  -0.011192   1.493298)
  35:       990.06    9.064308  (  2.239401   0.303463  -1.989297)
  36:       993.86   26.084722  ( -4.143172   0.197135   2.979931)
  37:      1024.64    1.704533  ( -1.288648   0.138529   0.157252)
  38:      1033.75   39.166039  ( -4.824944  -0.386058   3.966978)
  39:      1113.28   16.157188  (  2.240898   1.990532   2.678310)
  40:      1152.18    7.524452  (  1.528110  -2.276367  -0.086529)
  41:      1182.25   12.907654  ( -3.503776  -0.020620  -0.794219)
  42:      1194.75  108.218411  (-10.372542   0.769675   0.190720)
  43:      1196.29   70.124969  ( -8.261078   1.183669   0.691729)
  44:      1217.03    3.044234  ( -0.231335   0.351924   1.693183)
  45:      1223.89    2.711918  (  1.206993  -0.961612  -0.574794)
  46:      1244.68    1.678846  (  0.813611   0.014654  -1.008300)
  47:      1301.99   69.473637  (  6.648562   0.375526  -5.012908)
  48:      1326.16   74.116383  ( -8.050751   1.247269   2.783185)
  49:      1346.63   45.905721  ( -6.749234   0.049893  -0.592512)
  50:      1358.59   61.711212  (  7.819183   0.278102   0.703026)
  51:      1379.75   65.505553  ( -6.606690  -1.337996   4.479617)
  52:      1407.53   36.400150  (  5.863619   1.413267  -0.144222)
  53:      1411.88   44.340928  (  4.672773  -0.015974  -4.744035)
  54:      1462.00    6.574018  ( -0.760464  -1.945431   1.486948)
  55:      1486.22   23.740238  (  4.789898   0.887436   0.097832)
  56:      1573.41  148.458108  (-12.164051   0.652951   0.260062)
  57:      1655.02   19.574993  (  3.390067   0.661762   2.764871)
  58:      1664.67   15.359684  ( -3.587378   1.522536   0.415076)
  59:      1708.07   92.795687  ( -9.594277   0.003048  -0.863443)
  60:      1910.44  386.912170  (-15.763855   3.416873 -11.257798)
  61:      3033.04   11.311386  (  2.714035   1.950241   0.376778)
  62:      3066.95   18.492056  ( -2.948881  -3.069690   0.610865)
  63:      3126.34    4.788345  ( -0.788808  -1.167849  -1.673994)
  64:      3185.44   10.961625  (  3.271243   0.221992   0.459690)
  65:      3202.04    5.804815  (  0.986668   1.711135   1.379608)
  66:      3203.07    1.088053  ( -1.026537  -0.184552   0.014655)
  67:      3233.22    0.845599  (  0.760535  -0.486409  -0.174904)
  68:      3531.03    4.977051  (  1.622666  -0.339244   1.492957)
  69:      3603.71    8.024988  ( -0.491267   2.726709  -0.590512)
  70:      3730.91  402.545950  ( 15.089720  -6.484612  11.523720)
  71:      3883.19   98.131357  (  7.794954   4.664656   3.951080)

The first frequency considered to be a vibration is 6
The total number of vibrations considered is 66


--------------------------
THERMOCHEMISTRY AT 298.15K
--------------------------

Temperature         ... 298.15 K
Pressure            ... 1.00 atm
Total Mass          ... 181.19 AMU

Throughout the following assumptions are being made:
  (1) The electronic state is orbitally nondegenerate
  (2) There are no thermally accessible electronically excited states
  (3) Hindered rotations indicated by low frequency modes are not
      treated as such but are treated as vibrations and this may
      cause some error
  (4) All equations used are the standard statistical mechanics
      equations for an ideal gas
  (5) All vibrations are strictly harmonic

freq.      37.46  E(vib)   ...       0.54 
freq.      40.22  E(vib)   ...       0.54 
freq.      63.05  E(vib)   ...       0.51 
freq.      93.47  E(vib)   ...       0.47 
freq.     169.13  E(vib)   ...       0.38 
freq.     198.72  E(vib)   ...       0.35 
freq.     258.99  E(vib)   ...       0.30 
freq.     305.89  E(vib)   ...       0.26 
freq.     311.01  E(vib)   ...       0.26 
freq.     330.32  E(vib)   ...       0.24 
freq.     383.63  E(vib)   ...       0.20 
freq.     393.69  E(vib)   ...       0.20 
freq.     426.54  E(vib)   ...       0.18 
freq.     432.62  E(vib)   ...       0.18 
freq.     482.46  E(vib)   ...       0.15 
freq.     533.01  E(vib)   ...       0.13 
freq.     563.96  E(vib)   ...       0.11 
freq.     580.14  E(vib)   ...       0.11 
freq.     646.93  E(vib)   ...       0.09 
freq.     653.78  E(vib)   ...       0.08 
freq.     731.69  E(vib)   ...       0.06 
freq.     745.88  E(vib)   ...       0.06 
freq.     802.45  E(vib)   ...       0.05 
freq.     820.97  E(vib)   ...       0.05 
freq.     832.62  E(vib)   ...       0.04 
freq.     861.57  E(vib)   ...       0.04 
freq.     878.69  E(vib)   ...       0.04 
freq.     927.57  E(vib)   ...       0.03 
freq.     965.18  E(vib)   ...       0.03 
freq.     990.06  E(vib)   ...       0.02 
freq.     993.86  E(vib)   ...       0.02 
freq.    1024.64  E(vib)   ...       0.02 
freq.    1033.75  E(vib)   ...       0.02 
freq.    1113.28  E(vib)   ...       0.01 
freq.    1152.18  E(vib)   ...       0.01 
freq.    1182.25  E(vib)   ...       0.01 
freq.    1194.75  E(vib)   ...       0.01 
freq.    1196.29  E(vib)   ...       0.01 
freq.    1217.03  E(vib)   ...       0.01 
freq.    1223.89  E(vib)   ...       0.01 
freq.    1244.68  E(vib)   ...       0.01 
freq.    1301.99  E(vib)   ...       0.01 
freq.    1326.16  E(vib)   ...       0.01 
freq.    1346.63  E(vib)   ...       0.01 
freq.    1358.59  E(vib)   ...       0.01 
freq.    1379.75  E(vib)   ...       0.01 
freq.    1407.53  E(vib)   ...       0.00 
freq.    1411.88  E(vib)   ...       0.00 
freq.    1462.00  E(vib)   ...       0.00 
freq.    1486.22  E(vib)   ...       0.00 
freq.    1573.41  E(vib)   ...       0.00 
freq.    1655.02  E(vib)   ...       0.00 
freq.    1664.67  E(vib)   ...       0.00 
freq.    1708.07  E(vib)   ...       0.00 
freq.    1910.44  E(vib)   ...       0.00 
freq.    3033.04  E(vib)   ...       0.00 
freq.    3066.95  E(vib)   ...       0.00 
freq.    3126.34  E(vib)   ...       0.00 
freq.    3185.44  E(vib)   ...       0.00 
freq.    3202.04  E(vib)   ...       0.00 
freq.    3203.07  E(vib)   ...       0.00 
freq.    3233.22  E(vib)   ...       0.00 
freq.    3531.03  E(vib)   ...       0.00 
freq.    3603.71  E(vib)   ...       0.00 
freq.    3730.91  E(vib)   ...       0.00 
freq.    3883.19  E(vib)   ...       0.00 

------------
INNER ENERGY
------------

The inner energy is: U= E(el) + E(ZPE) + E(vib) + E(rot) + E(trans)
    E(el)   - is the total energy from the electronic structure calculation
              = E(kin-el) + E(nuc-el) + E(el-el) + E(nuc-nuc)
    E(ZPE)  - the the zero temperature vibrational energy from the frequency calculation
    E(vib)  - the the finite temperature correction to E(ZPE) due to population
              of excited vibrational states
    E(rot)  - is the rotational thermal energy
    E(trans)- is the translational thermal energy

Summary of contributions to the inner energy U:
Electronic energy                ...   -628.85568936 Eh
Zero point energy                ...      0.19553417 Eh     122.70 kcal/mol
Thermal vibrational correction   ...      0.00938079 Eh       5.89 kcal/mol
Thermal rotational correction    ...      0.00141627 Eh       0.89 kcal/mol
Thermal translational correction ...      0.00141627 Eh       0.89 kcal/mol
-----------------------------------------------------------------------
Total thermal energy                   -628.64794186 Eh


Summary of corrections to the electronic energy:
(perhaps to be used in another calculation)
Total thermal correction                  0.01221333 Eh       7.66 kcal/mol
Non-thermal (ZPE) correction              0.19553417 Eh     122.70 kcal/mol
-----------------------------------------------------------------------
Total correction                          0.20774750 Eh     130.36 kcal/mol


--------
ENTHALPY
--------

The enthalpy is H = U + kB*T
                kB is Boltzmann's constant
Total free energy                 ...   -628.64794186 Eh 
Thermal Enthalpy correction       ...      0.00094421 Eh       0.59 kcal/mol
-----------------------------------------------------------------------
Total Enthalpy                    ...   -628.64699765 Eh


Vibrational entropy computed according to the QRRHO of S. Grimme
Chem.Eur.J. 2012 18 9955

check  

-------
ENTROPY
-------

The entropy contributions are T*S = T*(S(el)+S(vib)+S(rot)+S(trans)
     S(el)   - electronic entropy
     S(vib)  - vibrational entropy
     S(rot)  - rotational entropy
     S(trans)- translational entropy
The entropies will be listed as mutliplied by the temperature to get
units of energy

Electronic entropy                ...      0.00000000 Eh      0.00 kcal/mol
Vibrational entropy               ...      0.01611879 Eh     10.11 kcal/mol
Rotational entropy                ...      0.01387178 Eh      8.70 kcal/mol
Translational entropy             ...      0.01971305 Eh     12.37 kcal/mol
-----------------------------------------------------------------------
Final entropy term                ...      0.04970362 Eh     31.19 kcal/mol


CAUTION: The rotational entropy is not quite correctly treated here
         because it includes a symmetry number that is not yet correctly
         implemented in ORCA!
For a nonlinear molecule the correct rotational entropy is:
    S(rot) = R*(ln(qrot/sn)+1.5)
    R    = 8.31441 J/mol/K = 1.987191683e-3 kcal/mol/K
    qrot = 1607956.9212602
    sn is the rotational symmetry number. We have assumed 3 here
       if it is different for your molecule then you should correct
       the printed rotational entropy by manually evaluating the equation
       as given above

For convenience we print out the resulting values for sn=1 - 12:
 sn= 1  qrot/sn= 1607956.9213 T*S(rot)=     9.36 kcal/mol T*S(tot)=    31.84 kcal/mol
 sn= 2  qrot/sn=  803978.4606 T*S(rot)=     8.94 kcal/mol T*S(tot)=    31.43 kcal/mol
 sn= 3  qrot/sn=  535985.6404 T*S(rot)=     8.70 kcal/mol T*S(tot)=    31.19 kcal/mol
 sn= 4  qrot/sn=  401989.2303 T*S(rot)=     8.53 kcal/mol T*S(tot)=    31.02 kcal/mol
 sn= 5  qrot/sn=  321591.3843 T*S(rot)=     8.40 kcal/mol T*S(tot)=    30.89 kcal/mol
 sn= 6  qrot/sn=  267992.8202 T*S(rot)=     8.29 kcal/mol T*S(tot)=    30.78 kcal/mol
 sn= 7  qrot/sn=  229708.1316 T*S(rot)=     8.20 kcal/mol T*S(tot)=    30.69 kcal/mol
 sn= 8  qrot/sn=  200994.6152 T*S(rot)=     8.12 kcal/mol T*S(tot)=    30.61 kcal/mol
 sn= 9  qrot/sn=  178661.8801 T*S(rot)=     8.05 kcal/mol T*S(tot)=    30.54 kcal/mol
 sn=10  qrot/sn=  160795.6921 T*S(rot)=     7.99 kcal/mol T*S(tot)=    30.48 kcal/mol
 sn=11  qrot/sn=  146177.9019 T*S(rot)=     7.93 kcal/mol T*S(tot)=    30.42 kcal/mol
 sn=12  qrot/sn=  133996.4101 T*S(rot)=     7.88 kcal/mol T*S(tot)=    30.37 kcal/mol


-------------------
GIBBS FREE ENTHALPY
-------------------

The Gibbs free enthalpy is G = H - T*S

Total enthalpy                    ...   -628.64699765 Eh 
Total entropy correction          ...     -0.04970362 Eh    -31.19 kcal/mol
-----------------------------------------------------------------------
Final Gibbs free enthalpy         ...   -628.69670127 Eh

For completeness - the Gibbs free enthalpy minus the electronic energy
G-E(el)                           ...      0.15898809 Eh     99.77 kcal/mol


Timings for individual modules:

Sum of individual times         ...    12993.765 sec (= 216.563 min)
GTO integral calculation        ...       21.438 sec (=   0.357 min)   0.2 %
SCF iterations                  ...     1569.416 sec (=  26.157 min)  12.1 %
SCF Gradient evaluation         ...      716.589 sec (=  11.943 min)   5.5 %
Geometry relaxation             ...       10.347 sec (=   0.172 min)   0.1 %
Analytical frequency calculation...    10675.975 sec (= 177.933 min)  82.2 %
                             ****ORCA TERMINATED NORMALLY****
TOTAL RUN TIME: 0 days 3 hours 36 minutes 43 seconds 108 msec
