
                                 *****************
                                 * O   R   C   A *
                                 *****************

           --- An Ab Initio, DFT and Semiempirical electronic structure package ---

                  #######################################################
                  #                        -***-                        #
                  #  Department of molecular theory and spectroscopy    #
                  #              Directorship: Frank Neese              #
                  # Max Planck Institute for Chemical Energy Conversion #
                  #                  D-45470 Muelheim/Ruhr              #
                  #                       Germany                       #
                  #                                                     #
                  #                  All rights reserved                #
                  #                        -***-                        #
                  #######################################################


                         Program Version 4.0.0 -  RELEASE  -


 With contributions from (in alphabetic order):
   Daniel Aravena         : Magnetic Properties
   Michael Atanasov       : Ab Initio Ligand Field Theory
   Ute Becker             : Parallelization
   Martin Brehm           : Molecular dynamics
   Dmytro Bykov           : SCF Hessian
   Vijay G. Chilkuri      : MRCI spin determinant printing
   Dipayan Datta          : RHF DLPNO-CCSD density
   Achintya Kumar Dutta   : EOM-CC, STEOM-CC
   Dmitry Ganyushin       : Spin-Orbit,Spin-Spin,Magnetic field MRCI
   Yang Guo               : DLPNO-NEVPT2, CIM, IAO-localization
   Andreas Hansen         : Spin unrestricted coupled pair/coupled cluster methods
   Lee Huntington         : MR-EOM, pCC
   Robert Izsak           : Overlap fitted RIJCOSX, COSX-SCS-MP3, EOM
   Christian Kollmar      : KDIIS, OOCD, Brueckner-CCSD(T), CCSD density
   Simone Kossmann        : Meta GGA functionals, TD-DFT gradient, OOMP2, MP2 Hessian
   Martin Krupicka        : AUTO-CI
   Dagmar Lenk            : GEPOL surface
   Dimitrios Liakos       : Extrapolation schemes; parallel MDCI
   Dimitrios Manganas     : ROCIS; embedding schemes
   Dimitrios Pantazis     : SARC Basis sets
   Taras Petrenko         : DFT Hessian,TD-DFT gradient, ASA, ECA, R-Raman, ABS, FL, XAS/XES, NRVS
   Peter Pinski           : DLPNO-MP2
   Christoph Reimann      : Effective Core Potentials
   Marius Retegan         : Local ZFS, SOC
   Christoph Riplinger    : Optimizer, TS searches, QM/MM, DLPNO-CCSD(T), (RO)-DLPNO pert. Triples
   Tobias Risthaus        : Range-separated hybrids, TD-DFT gradient, RPA, STAB
   Michael Roemelt        : Restricted open shell CIS
   Masaaki Saitow         : Open-shell DLPNO
   Barbara Sandhoefer     : DKH picture change effects
   Kantharuban Sivalingam : CASSCF convergence, NEVPT2, FIC-MRCI
   Georgi Stoychev        : AutoAux
   Boris Wezisla          : Elementary symmetry handling
   Frank Wennmohs         : Technical directorship


 We gratefully acknowledge several colleagues who have allowed us to
 interface, adapt or use parts of their codes:
   Stefan Grimme, W. Hujo, H. Kruse,             : VdW corrections, initial TS optimization,
                  C. Bannwarth                     DFT functionals, gCP, sTDA/sTD-DF
   Ed Valeev                                     : LibInt (2-el integral package), F12 methods
   Garnet Chan, S. Sharma, J. Yang, R. Olivares  : DMRG
   Ulf Ekstrom                                   : XCFun DFT Library
   Mihaly Kallay                                 : mrcc  (arbitrary order and MRCC methods)
   Jiri Pittner, Ondrej Demel                    : Mk-CCSD
   Frank Weinhold                                : gennbo (NPA and NBO analysis)
   Christopher J. Cramer and Donald G. Truhlar   : smd solvation model


 Your calculation uses the libint2 library for the computation of 2-el integrals
 For citations please refer to: http://libint.valeyev.net

 This ORCA versions uses:
   CBLAS   interface :  Fast vector & matrix operations
   LAPACKE interface :  Fast linear algebra routines




*****************************************
The coordinations will be read from file: lysine.xyz
*****************************************


Your calculation utilizes the basis: def2-SVP
   F. Weigend and R. Ahlrichs, Phys. Chem. Chem. Phys. 7, 3297 (2005).

================================================================================
                                        WARNINGS
                       Please study these warnings very carefully!
================================================================================

Warning: TCutStore was < 0. Adjusted to Thresh (uncritical)

WARNING: Geometry Optimization
  ===> : Switching off AutoStart
         For restart on a previous wavefunction, please use MOREAD

INFO   : the flag for use of LIBINT has been found!

================================================================================
                                       INPUT FILE
================================================================================
NAME = lysine.inp
|  1> ! PBE0
|  2> ! opt anfreq
|  3> * xyzfile 0 1 lysine.xyz **                         ****END OF INPUT****
================================================================================

                       *****************************
                       * Geometry Optimization Run *
                       *****************************

Geometry optimization settings:
Update method            Update   .... BFGS
Choice of coordinates    CoordSys .... Redundant Internals
Initial Hessian          InHess   .... Almoef's Model

Convergence Tolerances:
Energy Change            TolE     .... 5.0000e-006 Eh
Max. Gradient            TolMAXG  .... 3.0000e-004 Eh/bohr
RMS Gradient             TolRMSG  .... 1.0000e-004 Eh/bohr
Max. Displacement        TolMAXD  .... 4.0000e-003 bohr
RMS Displacement         TolRMSD  .... 2.0000e-003 bohr

------------------------------------------------------------------------------
                        ORCA OPTIMIZATION COORDINATE SETUP
------------------------------------------------------------------------------

The optimization will be done in new redundant internal coordinates
Making redundant internal coordinates   ...  (new redundants) done
Evaluating the initial hessian          ...  (Almloef) done
Evaluating the coordinates              ...  done
Calculating the B-matrix                .... done
Calculating the G-matrix                .... done
Diagonalizing the G-matrix              .... done
Small eigenvalue found = 7.421e-003
Small eigenvalue found = 2.947e-002
The first mode is                       ....   53
The number of degrees of freedom        ....   66

    -----------------------------------------------------------------
                    Redundant Internal Coordinates


    -----------------------------------------------------------------
         Definition                    Initial Value    Approx d2E/dq
    -----------------------------------------------------------------
      1. B(C   1,C   0)                  1.5336         0.368616   
      2. B(C   2,C   1)                  1.5327         0.369912   
      3. B(N   3,C   2)                  1.4583         0.435432   
      4. B(C   4,C   0)                  1.5348         0.367110   
      5. B(C   5,C   4)                  1.5482         0.349352   
      6. B(C   6,C   5)                  1.5246         0.381123   
      7. B(O   7,C   6)                  1.2216         1.038995   
      8. B(O   8,C   6)                  1.3508         0.646266   
      9. B(N   9,C   5)                  1.4669         0.421953   
     10. B(H  10,C   0)                  1.1085         0.336482   
     11. B(H  11,C   0)                  1.1122         0.331880   
     12. B(H  12,C   1)                  1.1122         0.331846   
     13. B(H  13,C   1)                  1.1125         0.331518   
     14. B(H  14,C   2)                  1.1136         0.330241   
     15. B(H  15,C   2)                  1.1118         0.332366   
     16. B(H  16,N   3)                  1.0453         0.380108   
     17. B(H  17,N   3)                  1.0452         0.380231   
     18. B(H  18,C   4)                  1.1131         0.330774   
     19. B(H  19,C   4)                  1.1126         0.331359   
     20. B(H  20,C   5)                  1.1125         0.331591   
     21. B(H  21,O   8)                  0.9666         0.507514   
     22. B(H  22,N   9)                  1.0467         0.378113   
     23. B(H  23,N   9)                  1.0465         0.378354   
     24. A(H  10,C   0,H  11)          109.8351         0.284126   
     25. A(C   4,C   0,H  11)          109.2426         0.319101   
     26. A(C   1,C   0,H  10)          107.5837         0.320034   
     27. A(C   1,C   0,C   4)          111.4201         0.361444   
     28. A(C   1,C   0,H  11)          109.1886         0.319315   
     29. A(C   4,C   0,H  10)          109.5477         0.319820   
     30. A(C   2,C   1,H  13)          109.4021         0.319441   
     31. A(H  12,C   1,H  13)          108.7481         0.283467   
     32. A(C   0,C   1,H  13)          109.5988         0.319258   
     33. A(C   2,C   1,H  12)          108.9987         0.319492   
     34. A(C   0,C   1,H  12)          109.4101         0.319309   
     35. A(C   0,C   1,C   2)          110.6518         0.361914   
     36. A(H  14,C   2,H  15)          108.6074         0.283366   
     37. A(C   1,C   2,H  15)          109.2827         0.319574   
     38. A(N   3,C   2,H  15)          108.9095         0.326275   
     39. A(N   3,C   2,H  14)          109.6232         0.325930   
     40. A(C   1,C   2,H  14)          109.9388         0.319239   
     41. A(C   1,C   2,N   3)          110.4445         0.370068   
     42. A(H  16,N   3,H  17)          107.7869         0.291063   
     43. A(C   2,N   3,H  17)          108.4543         0.330761   
     44. A(C   2,N   3,H  16)          109.2256         0.330743   
     45. A(C   0,C   4,H  19)          109.0199         0.319019   
     46. A(C   5,C   4,H  18)          107.3545         0.316362   
     47. A(C   0,C   4,H  18)          107.9617         0.318927   
     48. A(C   0,C   4,C   5)          114.8334         0.358155   
     49. A(H  18,C   4,H  19)          108.0374         0.283303   
     50. A(C   5,C   4,H  19)          109.4183         0.316452   
     51. A(C   6,C   5,N   9)          110.8078         0.369967   
     52. A(C   4,C   5,C   6)          113.6038         0.360446   
     53. A(C   4,C   5,N   9)          108.1690         0.364486   
     54. A(N   9,C   5,H  20)          107.2605         0.324467   
     55. A(C   6,C   5,H  20)          107.7875         0.321015   
     56. A(C   4,C   5,H  20)          109.0163         0.316489   
     57. A(C   5,C   6,O   8)          121.1973         0.398429   
     58. A(C   5,C   6,O   7)          120.2943         0.433534   
     59. A(O   7,C   6,O   8)          118.4115         0.474083   
     60. A(C   6,O   8,H  21)          122.4561         0.371217   
     61. A(H  22,N   9,H  23)          109.0154         0.290597   
     62. A(C   5,N   9,H  23)          109.8343         0.328778   
     63. A(C   5,N   9,H  22)          110.6522         0.328743   
     64. D(C   2,C   1,C   0,C   4)    179.1994         0.010867   
     65. D(H  13,C   1,C   0,C   4)    -60.0674         0.010867   
     66. D(H  12,C   1,C   0,H  10)    -61.0010         0.010867   
     67. D(H  13,C   1,C   0,H  10)    179.8429         0.010867   
     68. D(C   2,C   1,C   0,H  10)     59.1097         0.010867   
     69. D(H  13,C   1,C   0,H  11)     60.6880         0.010867   
     70. D(H  12,C   1,C   0,C   4)     59.0888         0.010867   
     71. D(C   2,C   1,C   0,H  11)    -60.0452         0.010867   
     72. D(H  12,C   1,C   0,H  11)    179.8442         0.010867   
     73. D(H  14,C   2,C   1,H  12)   -179.4835         0.010939   
     74. D(H  14,C   2,C   1,C   0)     60.1600         0.010939   
     75. D(N   3,C   2,C   1,H  13)     60.4072         0.010939   
     76. D(H  14,C   2,C   1,H  13)    -60.6901         0.010939   
     77. D(N   3,C   2,C   1,H  12)    -58.3862         0.010939   
     78. D(H  15,C   2,C   1,H  13)   -179.8020         0.010939   
     79. D(H  15,C   2,C   1,H  12)     61.4047         0.010939   
     80. D(H  15,C   2,C   1,C   0)    -58.9518         0.010939   
     81. D(N   3,C   2,C   1,C   0)   -178.7427         0.010939   
     82. D(H  17,N   3,C   2,H  15)     58.3128         0.016166   
     83. D(H  17,N   3,C   2,H  14)    -60.3869         0.016166   
     84. D(H  17,N   3,C   2,C   1)    178.3283         0.016166   
     85. D(H  16,N   3,C   2,H  14)     56.8349         0.016166   
     86. D(H  16,N   3,C   2,C   1)    -64.4499         0.016166   
     87. D(H  16,N   3,C   2,H  15)    175.5345         0.016166   
     88. D(H  18,C   4,C   0,H  11)    -64.0151         0.010784   
     89. D(H  18,C   4,C   0,H  10)    175.6327         0.010784   
     90. D(H  18,C   4,C   0,C   1)     56.7087         0.010784   
     91. D(C   5,C   4,C   0,H  11)     55.6899         0.010784   
     92. D(C   5,C   4,C   0,H  10)    -64.6622         0.010784   
     93. D(H  19,C   4,C   0,C   1)    -60.4237         0.010784   
     94. D(C   5,C   4,C   0,C   1)    176.4137         0.010784   
     95. D(H  19,C   4,C   0,H  11)    178.8525         0.010784   
     96. D(H  19,C   4,C   0,H  10)     58.5003         0.010784   
     97. D(H  20,C   5,C   4,H  19)    177.5602         0.009836   
     98. D(H  20,C   5,C   4,H  18)     60.5509         0.009836   
     99. D(H  20,C   5,C   4,C   0)    -59.4906         0.009836   
    100. D(N   9,C   5,C   4,H  19)     61.2379         0.009836   
    101. D(N   9,C   5,C   4,H  18)    -55.7713         0.009836   
    102. D(N   9,C   5,C   4,C   0)   -175.8129         0.009836   
    103. D(C   6,C   5,C   4,H  19)    -62.2263         0.009836   
    104. D(C   6,C   5,C   4,H  18)   -179.2355         0.009836   
    105. D(C   6,C   5,C   4,C   0)     60.7229         0.009836   
    106. D(O   8,C   6,C   5,H  20)     50.2601         0.010835   
    107. D(O   8,C   6,C   5,N   9)    167.3426         0.010835   
    108. D(O   8,C   6,C   5,C   4)    -70.6458         0.010835   
    109. D(O   7,C   6,C   5,H  20)   -126.1029         0.010835   
    110. D(O   7,C   6,C   5,N   9)     -9.0204         0.010835   
    111. D(O   7,C   6,C   5,C   4)    112.9912         0.010835   
    112. D(H  21,O   8,C   6,O   7)    171.8783         0.030838   
    113. D(H  21,O   8,C   6,C   5)     -4.5514         0.030838   
    114. D(H  23,N   9,C   5,H  20)     58.0567         0.015181   
    115. D(H  23,N   9,C   5,C   6)    -59.3491         0.015181   
    116. D(H  23,N   9,C   5,C   4)    175.5133         0.015181   
    117. D(H  22,N   9,C   5,H  20)    178.4617         0.015181   
    118. D(H  22,N   9,C   5,C   6)     61.0559         0.015181   
    119. D(H  22,N   9,C   5,C   4)    -64.0817         0.015181   
    -----------------------------------------------------------------

Number of atoms                         .... 24
Number of degrees of freedom            .... 119

         *************************************************************
         *                GEOMETRY OPTIMIZATION CYCLE   1            *
         *************************************************************
---------------------------------
CARTESIAN COORDINATES (ANGSTROEM)
---------------------------------
  C      0.986270   -0.036030    0.053400
  C      0.511440   -0.598570   -1.292010
  C     -1.019560   -0.640340   -1.350400
  N     -1.465740   -1.203390   -2.619460
  C      2.518340   -0.004780    0.138540
  C      3.084890    0.630860    1.431620
  C      2.664740   -0.096250    2.704040
  O      3.494210   -0.687210    3.378540
  O      1.391330   -0.044150    3.151680
  N      4.546470    0.676950    1.316240
  H      0.583770   -0.691760    0.851340
  H      0.591100    0.996120    0.178010
  H      0.907010   -1.629970   -1.421710
  H      0.895590    0.038390   -2.119290
  H     -1.432290    0.387040   -1.231380
  H     -1.401460   -1.274390   -0.520780
  H     -1.174360   -0.570150   -3.398380
  H     -2.510140   -1.243790   -2.614530
  H      2.897680    0.594140   -0.719620
  H      2.908520   -1.041540    0.034320
  H      2.726390    1.681310    1.506330
  H      0.714530    0.500790    2.728260
  H      4.943700   -0.290280    1.268460
  H      4.952590    1.171850    2.144120

----------------------------
CARTESIAN COORDINATES (A.U.)
----------------------------
  NO LB      ZA    FRAG     MASS         X           Y           Z
   0 C     6.0000    0    12.011    1.863780   -0.068087    0.100911
   1 C     6.0000    0    12.011    0.966482   -1.131133   -2.441545
   2 C     6.0000    0    12.011   -1.926689   -1.210067   -2.551886
   3 N     7.0000    0    14.007   -2.769847   -2.274078   -4.950062
   4 C     6.0000    0    12.011    4.758973   -0.009033    0.261803
   5 C     6.0000    0    12.011    5.829597    1.192153    2.705370
   6 C     6.0000    0    12.011    5.035629   -0.181886    5.109895
   7 O     8.0000    0    15.999    6.603100   -1.298639    6.384515
   8 O     8.0000    0    15.999    2.629233   -0.083431    5.955812
   9 N     7.0000    0    14.007    8.591583    1.279250    2.487333
  10 H     1.0000    0     1.008    1.103165   -1.307237    1.608799
  11 H     1.0000    0     1.008    1.117017    1.882394    0.336390
  12 H     1.0000    0     1.008    1.714001   -3.080197   -2.686643
  13 H     1.0000    0     1.008    1.692420    0.072547   -4.004878
  14 H     1.0000    0     1.008   -2.706636    0.731400   -2.326971
  15 H     1.0000    0     1.008   -2.648376   -2.408248   -0.984132
  16 H     1.0000    0     1.008   -2.219219   -1.077427   -6.422007
  17 H     1.0000    0     1.008   -4.743477   -2.350422   -4.940746
  18 H     1.0000    0     1.008    5.475822    1.122762   -1.359885
  19 H     1.0000    0     1.008    5.496306   -1.968225    0.064855
  20 H     1.0000    0     1.008    5.152130    3.177215    2.846551
  21 H     1.0000    0     1.008    1.350266    0.946356    5.155664
  22 H     1.0000    0     1.008    9.342239   -0.548550    2.397042
  23 H     1.0000    0     1.008    9.359039    2.214476    4.051800

--------------------------------
INTERNAL COORDINATES (ANGSTROEM)
--------------------------------
 C      0   0   0     0.000000000000     0.00000000     0.00000000
 C      1   0   0     1.533637130680     0.00000000     0.00000000
 C      2   1   0     1.532682330100   110.65180514     0.00000000
 N      3   2   1     1.458291870134   110.44452778   181.25729099
 C      1   2   3     1.534752053916   111.42014994   179.19939058
 C      5   1   2     1.548248364604   114.83342772   176.41370076
 C      6   5   1     1.524554896027   113.60384017    60.72289104
 O      7   6   5     1.221558206759   120.29430531   112.99118755
 O      7   6   5     1.350803097309   121.19726088   289.35418580
 N      6   5   1     1.466851365647   108.16895556   184.18711100
 H      1   2   3     1.108465753418   107.58369953    59.10965454
 H      1   2   3     1.112214279489   109.18861489   299.95476488
 H      2   1   3     1.112242633107   109.41005133   239.88939092
 H      2   1   3     1.112511331403   109.59877693   120.73322954
 H      3   2   1     1.113562516296   109.93884218    60.15998061
 H      3   2   1     1.111816692130   109.28271224   301.04817123
 H      4   3   2     1.045280617059   109.22559870   295.55005907
 H      4   3   2     1.045192721416   108.45428790   178.32829702
 H      5   1   2     1.113122898695   107.96168259    56.70865216
 H      5   1   2     1.112642592390   109.01990608   299.57625938
 H      6   5   1     1.112451813159   109.01629064   300.50936277
 H      9   7   6     0.966593161573   122.45608519   355.44860602
 H     10   6   5     1.046713176663   110.65217807   295.91829775
 H     10   6   5     1.046539420567   109.83425402   175.51326886

---------------------------
INTERNAL COORDINATES (A.U.)
---------------------------
 C      0   0   0     0.000000000000     0.00000000     0.00000000
 C      1   0   0     2.898154165798     0.00000000     0.00000000
 C      2   1   0     2.896349854189   110.65180514     0.00000000
 N      3   2   1     2.755772257878   110.44452778   181.25729099
 C      1   2   3     2.900261065375   111.42014994   179.19939058
 C      5   1   2     2.925765396394   114.83342772   176.41370076
 C      6   5   1     2.880991229620   113.60384017    60.72289104
 O      7   6   5     2.308410467418   120.29430531   112.99118755
 O      7   6   5     2.552647914767   121.19726088   289.35418580
 N      6   5   1     2.771947360241   108.16895556   184.18711100
 H      1   2   3     2.094696702790   107.58369953    59.10965454
 H      1   2   3     2.101780390471   109.18861489   299.95476488
 H      2   1   3     2.101833971043   109.41005133   239.88939092
 H      2   1   3     2.102341737236   109.59877693   120.73322954
 H      3   2   1     2.104328188800   109.93884218    60.15998061
 H      3   2   1     2.101029059249   109.28271224   301.04817123
 H      4   3   2     1.975294099338   109.22559870   295.55005907
 H      4   3   2     1.975128000643   108.45428790   178.32829702
 H      5   1   2     2.103497431931   107.96168259    56.70865216
 H      5   1   2     2.102589784553   109.01990608   299.57625938
 H      6   5   1     2.102229264054   109.01629064   300.50936277
 H      9   7   6     1.826596358294   122.45608519   355.44860602
 H     10   6   5     1.978001244660   110.65217807   295.91829775
 H     10   6   5     1.977672893224   109.83425402   175.51326886

---------------------
BASIS SET INFORMATION
---------------------
There are 4 groups of distinct atoms

 Group   1 Type C   : 7s4p1d contracted to 3s2p1d pattern {511/31/1}
 Group   2 Type N   : 7s4p1d contracted to 3s2p1d pattern {511/31/1}
 Group   3 Type O   : 7s4p1d contracted to 3s2p1d pattern {511/31/1}
 Group   4 Type H   : 4s1p contracted to 2s1p pattern {31/1}

Atom   0C    basis set group =>   1
Atom   1C    basis set group =>   1
Atom   2C    basis set group =>   1
Atom   3N    basis set group =>   2
Atom   4C    basis set group =>   1
Atom   5C    basis set group =>   1
Atom   6C    basis set group =>   1
Atom   7O    basis set group =>   3
Atom   8O    basis set group =>   3
Atom   9N    basis set group =>   2
Atom  10H    basis set group =>   4
Atom  11H    basis set group =>   4
Atom  12H    basis set group =>   4
Atom  13H    basis set group =>   4
Atom  14H    basis set group =>   4
Atom  15H    basis set group =>   4
Atom  16H    basis set group =>   4
Atom  17H    basis set group =>   4
Atom  18H    basis set group =>   4
Atom  19H    basis set group =>   4
Atom  20H    basis set group =>   4
Atom  21H    basis set group =>   4
Atom  22H    basis set group =>   4
Atom  23H    basis set group =>   4
-------------------------
ECP PARAMETER INFORMATION
-------------------------



------------------------------------------------------------------------------
                           ORCA GTO INTEGRAL CALCULATION
------------------------------------------------------------------------------

                         BASIS SET STATISTICS AND STARTUP INFO

 # of primitive gaussian shells          ...  190
 # of primitive gaussian functions       ...  338
 # of contracted shells                  ...  102
 # of contracted basis functions         ...  210
 Highest angular momentum                ...    2
 Maximum contraction depth               ...    5
 Integral package used                   ... LIBINT
 Integral threshhold            Thresh   ... 2.500e-011
 Primitive cut-off              TCut     ... 2.500e-012


------------------------------ INTEGRAL EVALUATION ----------------------------


 * One electron integrals 

   ECP integrals                          Pre-screening matrix                    ... done
 Shell pair data                         ... done (   0.002 sec)

Timings:
 Total evaluation time               ...     0.003 sec (   0.000 min)
 One electron matrix time            ...     0.025 sec (   0.000 min) =833.3%
 Schwartz matrix evaluation time     ...     0.086 sec (   0.001 min) =2866.7%

-------------------------------------------------------------------------------
                                 ORCA SCF
-------------------------------------------------------------------------------

------------
SCF SETTINGS
------------
Hamiltonian:
 Density Functional     Method          .... DFT(GTOs)
 Exchange Functional    Exchange        .... PBE
   PBE kappa parameter   XKappa         ....  0.804000
   PBE mue parameter    XMuePBE         ....  0.219520
 Correlation Functional Correlation     .... PBE
   PBE beta parameter  CBetaPBE         ....  0.066725
 LDA part of GGA corr.  LDAOpt          .... PW91-LDA
 Gradients option       PostSCFGGA      .... off
 Hybrid DFT is turned on
   Fraction HF Exchange ScalHFX         ....  0.250000
   Scaling of DF-GGA-X  ScalDFX         ....  0.750000
   Scaling of DF-GGA-C  ScalDFC         ....  1.000000
   Scaling of DF-LDA-C  ScalLDAC        ....  1.000000
   Perturbative correction              ....  0.000000
   NL short-range parameter             ....  6.900000


General Settings:
 Integral files         IntName         .... lysine
 Hartree-Fock type      HFTyp           .... RHF
 Total Charge           Charge          ....    0
 Multiplicity           Mult            ....    1
 Number of Electrons    NEL             ....   80
 Basis Dimension        Dim             ....  210
 Nuclear Repulsion      ENuc            ....    546.9617224328 Eh

Convergence Acceleration:
 DIIS                   CNVDIIS         .... on
   Start iteration      DIISMaxIt       ....    12
   Startup error        DIISStart       ....  0.200000
   # of expansion vecs  DIISMaxEq       ....     5
   Bias factor          DIISBfac        ....   1.050
   Max. coefficient     DIISMaxC        ....  10.000
 Newton-Raphson         CNVNR           .... off
 SOSCF                  CNVSOSCF        .... on
   Start iteration      SOSCFMaxIt      ....   150
   Startup grad/error   SOSCFStart      ....  0.003300
 Level Shifting         CNVShift        .... on
   Level shift para.    LevelShift      ....    0.2500
   Turn off err/grad.   ShiftErr        ....    0.0010
 Zerner damping         CNVZerner       .... off
 Static damping         CNVDamp         .... on
   Fraction old density DampFac         ....    0.7000
   Max. Damping (<1)    DampMax         ....    0.9800
   Min. Damping (>=0)   DampMin         ....    0.0000
   Turn off err/grad.   DampErr         ....    0.1000
 Fernandez-Rico         CNVRico         .... off

SCF Procedure:
 Maximum # iterations   MaxIter         ....   125
 SCF integral mode      SCFMode         .... Direct
   Integral package                     .... LIBINT
 Reset frequeny         DirectResetFreq ....    20
 Integral Threshold     Thresh          .... 2.500e-011 Eh
 Primitive CutOff       TCut            .... 2.500e-012 Eh

Convergence Tolerance:
 Convergence Check Mode ConvCheckMode   .... Total+1el-Energy
 Convergence forced     ConvForced      .... 0
 Energy Change          TolE            .... 1.000e-008 Eh
 1-El. energy change                    .... 1.000e-005 Eh
 Orbital Gradient       TolG            .... 1.000e-005
 Orbital Rotation angle TolX            .... 1.000e-005
 DIIS Error             TolErr          .... 5.000e-007


Diagonalization of the overlap matrix:
Smallest eigenvalue                        ... 1.034e-003
Time for diagonalization                   ...    0.009 sec
Threshold for overlap eigenvalues          ... 1.000e-008
Number of eigenvalues below threshold      ... 0
Time for construction of square roots      ...    0.004 sec
Total time needed                          ...    0.013 sec

-------------------
DFT GRID GENERATION
-------------------

General Integration Accuracy     IntAcc      ...  4.340
Radial Grid Type                 RadialGrid  ... Gauss-Chebyshev
Angular Grid (max. acc.)         AngularGrid ... Lebedev-110
Angular grid pruning method      GridPruning ... 3 (G Style)
Weight generation scheme         WeightScheme... Becke
Basis function cutoff            BFCut       ...   1.0000e-011
Integration weight cutoff        WCut        ...   1.0000e-014
Grids for H and He will be reduced by one unit

# of grid points (after initial pruning)     ...  27888 (   0.0 sec)
# of grid points (after weights+screening)   ...  25528 (   0.1 sec)
nearest neighbour list constructed           ...    0.0 sec
Grid point re-assignment to atoms done       ...    0.0 sec
Grid point division into batches done        ...    0.0 sec
Reduced shell lists constructed in    0.2 sec

Total number of grid points                  ...    25528
Total number of batches                      ...      409
Average number of points per batch           ...       62
Average number of grid points per atom       ...     1064
Average number of shells per batch           ...    64.00 (62.75%)
Average number of basis functions per batch  ...   125.41 (59.72%)
Average number of large shells per batch     ...    47.69 (74.50%)
Average number of large basis fcns per batch ...    92.04 (73.39%)
Maximum spatial batch extension              ...  19.12, 19.79, 20.31 au
Average spatial batch extension              ...   3.43,  3.57,  3.56 au

Time for grid setup =    0.285 sec

------------------------------
INITIAL GUESS: MODEL POTENTIAL
------------------------------
Loading Hartree-Fock densities                     ... done
Calculating cut-offs                               ... done
Setting up the integral package                    ... done
Initializing the effective Hamiltonian             ... done
Starting the Coulomb interaction                   ... done (   0.1 sec)
Reading the grid                                   ... done
Mapping shells                                     ... done
Starting the XC term evaluation                    ... done (   0.2 sec)
  promolecular density results
     # of electrons  =     79.983900693
     EX              =    -64.159525897
     EC              =     -2.649351838
     EX+EC           =    -66.808877735
Transforming the Hamiltonian                       ... done (   0.0 sec)
Diagonalizing the Hamiltonian                      ... done (   0.0 sec)
Back transforming the eigenvectors                 ... done (   0.0 sec)
Now organizing SCF variables                       ... done
                      ------------------
                      INITIAL GUESS DONE (   0.7 sec)
                      ------------------
--------------
SCF ITERATIONS
--------------
ITER       Energy         Delta-E        Max-DP      RMS-DP      [F,P]     Damp
               ***  Starting incremental Fock matrix formation  ***
  0   -495.7181304015   0.000000000000 0.08903324  0.00252042  0.2496250 0.7000
  1   -495.8932466857  -0.175116284169 0.05403529  0.00163934  0.1080552 0.7000
                               ***Turning on DIIS***
  2   -495.9581432904  -0.064896604674 0.06103505  0.00239762  0.0363340 0.0000
  3   -496.0612195456  -0.103076255180 0.04665384  0.00115284  0.0628385 0.0000
  4   -496.0845193819  -0.023299836373 0.01344195  0.00032505  0.0102775 0.0000
  5   -496.0857698956  -0.001250513618 0.00457074  0.00010857  0.0076587 0.0000
                      *** Initiating the SOSCF procedure ***
                           *** Shutting down DIIS ***
                      *** Re-Reading the Fockian *** 
                      *** Removing any level shift *** 
ITER      Energy       Delta-E        Grad      Rot      Max-DP    RMS-DP
  6   -496.08588328  -0.0001133831  0.000261  0.000261  0.001071  0.000036
               *** Restarting incremental Fock matrix formation ***
  7   -496.08589038  -0.0000071015  0.000180  0.000549  0.000702  0.000024
  8   -496.08589029   0.0000000935  0.000327  0.000428  0.000418  0.000010
  9   -496.08589179  -0.0000015039  0.000077  0.000155  0.000185  0.000005
 10   -496.08589170   0.0000000876  0.000090  0.000086  0.000119  0.000003
 11   -496.08589186  -0.0000001573  0.000008  0.000014  0.000036  0.000001
 12   -496.08589186   0.0000000002  0.000009  0.000008  0.000020  0.000000
                  ***Gradient check signals convergence***
              ***Rediagonalizing the Fockian in SOSCF/NRSCF***

               *****************************************************
               *                     SUCCESS                       *
               *           SCF CONVERGED AFTER  13 CYCLES          *
               *****************************************************

Setting up the final grid:

General Integration Accuracy     IntAcc      ...  4.670
Radial Grid Type                 RadialGrid  ... Gauss-Chebyshev
Angular Grid (max. acc.)         AngularGrid ... Lebedev-302
Angular grid pruning method      GridPruning ... 3 (G Style)
Weight generation scheme         WeightScheme... Becke
Basis function cutoff            BFCut       ...   1.0000e-011
Integration weight cutoff        WCut        ...   1.0000e-014
Grids for H and He will be reduced by one unit

# of grid points (after initial pruning)     ... 109636 (   0.1 sec)
# of grid points (after weights+screening)   ...  98442 (   0.4 sec)
nearest neighbour list constructed           ...    0.0 sec
Grid point re-assignment to atoms done       ...    0.0 sec
Grid point division into batches done        ...    0.3 sec
Reduced shell lists constructed in    1.0 sec

Total number of grid points                  ...    98442
Total number of batches                      ...     1551
Average number of points per batch           ...       63
Average number of grid points per atom       ...     4102
Average number of shells per batch           ...    58.74 (57.59%)
Average number of basis functions per batch  ...   114.14 (54.35%)
Average number of large shells per batch     ...    42.83 (72.91%)
Average number of large basis fcns per batch ...    81.56 (71.46%)
Maximum spatial batch extension              ...  17.00, 18.77, 19.76 au
Average spatial batch extension              ...   2.26,  2.32,  2.34 au

Final grid set up in    1.5 sec
Final integration                            ... done (   1.3 sec)
Change in XC energy                          ...    -0.000023950
Integrated number of electrons               ...    80.000258919
Previous integrated no of electrons          ...    79.997378507

----------------
TOTAL SCF ENERGY
----------------

Total Energy       :         -496.08591581 Eh          -13499.18405 eV

Components:
Nuclear Repulsion  :          546.96172243 Eh           14883.58513 eV
Electronic Energy  :        -1043.04763824 Eh          -28382.76919 eV
One Electron Energy:        -1759.30859423 Eh          -47873.22068 eV
Two Electron Energy:          716.26095598 Eh           19490.45149 eV

Virial components:
Potential Energy   :         -987.15012653 Eh          -26861.72057 eV
Kinetic Energy     :          491.06421072 Eh           13362.53651 eV
Virial Ratio       :            2.01022617


DFT components:
N(Alpha)           :       40.000129459668 electrons
N(Beta)            :       40.000129459668 electrons
N(Total)           :       80.000258919336 electrons
E(X)               :      -49.051292505881 Eh       
E(C)               :       -2.674934383895 Eh       
E(XC)              :      -51.726226889776 Eh       

---------------
SCF CONVERGENCE
---------------

  Last Energy change         ...  -2.4652e-009  Tolerance :  1.0000e-008
  Last MAX-Density change    ...   3.8534e-006  Tolerance :  1.0000e-007
  Last RMS-Density change    ...   7.7590e-008  Tolerance :  5.0000e-009
  Last Orbital Gradient      ...   6.1980e-007  Tolerance :  1.0000e-005
  Last Orbital Rotation      ...   1.1512e-006  Tolerance :  1.0000e-005

             **** THE GBW FILE WAS UPDATED (lysine.gbw) ****
             **** DENSITY FILE WAS UPDATED (lysine.scfp.tmp) ****
             **** ENERGY FILE WAS UPDATED (lysine.en.tmp) ****
----------------
ORBITAL ENERGIES
----------------

  NO   OCC          E(Eh)            E(eV) 
   0   2.0000     -19.257934      -524.0350 
   1   2.0000     -19.191251      -522.2205 
   2   2.0000     -14.374633      -391.1536 
   3   2.0000     -14.373799      -391.1310 
   4   2.0000     -10.360446      -281.9221 
   5   2.0000     -10.283204      -279.8202 
   6   2.0000     -10.260289      -279.1967 
   7   2.0000     -10.249192      -278.8947 
   8   2.0000     -10.247950      -278.8609 
   9   2.0000     -10.238958      -278.6162 
  10   2.0000      -1.114207       -30.3191 
  11   2.0000      -1.025901       -27.9162 
  12   2.0000      -0.900838       -24.5131 
  13   2.0000      -0.896122       -24.3847 
  14   2.0000      -0.819098       -22.2888 
  15   2.0000      -0.750420       -20.4200 
  16   2.0000      -0.691186       -18.8081 
  17   2.0000      -0.649229       -17.6664 
  18   2.0000      -0.624790       -17.0014 
  19   2.0000      -0.601754       -16.3746 
  20   2.0000      -0.545572       -14.8458 
  21   2.0000      -0.508672       -13.8417 
  22   2.0000      -0.505197       -13.7471 
  23   2.0000      -0.488485       -13.2924 
  24   2.0000      -0.473122       -12.8743 
  25   2.0000      -0.460131       -12.5208 
  26   2.0000      -0.454420       -12.3654 
  27   2.0000      -0.433828       -11.8051 
  28   2.0000      -0.423887       -11.5345 
  29   2.0000      -0.408012       -11.1026 
  30   2.0000      -0.402820       -10.9613 
  31   2.0000      -0.382464       -10.4074 
  32   2.0000      -0.368333       -10.0228 
  33   2.0000      -0.358414        -9.7529 
  34   2.0000      -0.353954        -9.6316 
  35   2.0000      -0.344941        -9.3863 
  36   2.0000      -0.325966        -8.8700 
  37   2.0000      -0.283692        -7.7197 
  38   2.0000      -0.252723        -6.8769 
  39   2.0000      -0.246451        -6.7063 
  40   0.0000       0.005817         0.1583 
  41   0.0000       0.045372         1.2346 
  42   0.0000       0.055717         1.5161 
  43   0.0000       0.073374         1.9966 
  44   0.0000       0.076633         2.0853 
  45   0.0000       0.082046         2.2326 
  46   0.0000       0.097803         2.6614 
  47   0.0000       0.116760         3.1772 
  48   0.0000       0.126022         3.4292 
  49   0.0000       0.142039         3.8651 
  50   0.0000       0.154006         4.1907 
  51   0.0000       0.162842         4.4312 
  52   0.0000       0.165495         4.5033 
  53   0.0000       0.172687         4.6991 
  54   0.0000       0.180165         4.9026 
  55   0.0000       0.197453         5.3730 
  56   0.0000       0.209443         5.6992 
  57   0.0000       0.221309         6.0221 
  58   0.0000       0.238440         6.4883 
  59   0.0000       0.247853         6.7444 
  60   0.0000       0.287189         7.8148 
  61   0.0000       0.308981         8.4078 
  62   0.0000       0.337131         9.1738 
  63   0.0000       0.391109        10.6426 
  64   0.0000       0.418723        11.3940 
  65   0.0000       0.437096        11.8940 
  66   0.0000       0.444626        12.0989 
  67   0.0000       0.458716        12.4823 
  68   0.0000       0.472054        12.8452 
  69   0.0000       0.479166        13.0388 
  70   0.0000       0.509509        13.8644 
  71   0.0000       0.515996        14.0410 
  72   0.0000       0.551761        15.0142 
  73   0.0000       0.572633        15.5821 
  74   0.0000       0.580456        15.7950 
  75   0.0000       0.593474        16.1493 
  76   0.0000       0.607338        16.5265 
  77   0.0000       0.610958        16.6250 
  78   0.0000       0.623110        16.9557 
  79   0.0000       0.630500        17.1568 
  80   0.0000       0.644291        17.5320 
  81   0.0000       0.650593        17.7035 
  82   0.0000       0.655172        17.8281 
  83   0.0000       0.660117        17.9627 
  84   0.0000       0.666388        18.1333 
  85   0.0000       0.677987        18.4490 
  86   0.0000       0.690193        18.7811 
  87   0.0000       0.693487        18.8707 
  88   0.0000       0.701472        19.0880 
  89   0.0000       0.706501        19.2249 
  90   0.0000       0.710910        19.3448 
  91   0.0000       0.720189        19.5973 
  92   0.0000       0.732889        19.9429 
  93   0.0000       0.743033        20.2190 
  94   0.0000       0.750034        20.4095 
  95   0.0000       0.769525        20.9398 
  96   0.0000       0.821664        22.3586 
  97   0.0000       0.841979        22.9114 
  98   0.0000       0.849123        23.1058 
  99   0.0000       0.880413        23.9572 
 100   0.0000       0.904797        24.6208 
 101   0.0000       0.935130        25.4462 
 102   0.0000       0.955567        26.0023 
 103   0.0000       0.965532        26.2735 
 104   0.0000       0.989592        26.9282 
 105   0.0000       1.015789        27.6410 
 106   0.0000       1.035708        28.1830 
 107   0.0000       1.054021        28.6814 
 108   0.0000       1.057677        28.7809 
 109   0.0000       1.082723        29.4624 
 110   0.0000       1.103408        30.0252 
 111   0.0000       1.136630        30.9293 
 112   0.0000       1.174344        31.9555 
 113   0.0000       1.186541        32.2874 
 114   0.0000       1.213039        33.0085 
 115   0.0000       1.259017        34.2596 
 116   0.0000       1.265612        34.4391 
 117   0.0000       1.310800        35.6687 
 118   0.0000       1.330186        36.1962 
 119   0.0000       1.348180        36.6858 
 120   0.0000       1.353808        36.8390 
 121   0.0000       1.375269        37.4230 
 122   0.0000       1.380530        37.5661 
 123   0.0000       1.387182        37.7471 
 124   0.0000       1.441949        39.2374 
 125   0.0000       1.458503        39.6879 
 126   0.0000       1.498122        40.7660 
 127   0.0000       1.541874        41.9565 
 128   0.0000       1.598103        43.4866 
 129   0.0000       1.614304        43.9275 
 130   0.0000       1.656562        45.0773 
 131   0.0000       1.679964        45.7142 
 132   0.0000       1.700790        46.2808 
 133   0.0000       1.718557        46.7643 
 134   0.0000       1.721395        46.8415 
 135   0.0000       1.732123        47.1335 
 136   0.0000       1.744250        47.4635 
 137   0.0000       1.750589        47.6359 
 138   0.0000       1.763074        47.9757 
 139   0.0000       1.781936        48.4889 
 140   0.0000       1.796061        48.8733 
 141   0.0000       1.802434        49.0467 
 142   0.0000       1.812586        49.3230 
 143   0.0000       1.826816        49.7102 
 144   0.0000       1.836688        49.9788 
 145   0.0000       1.847559        50.2746 
 146   0.0000       1.850975        50.3676 
 147   0.0000       1.867312        50.8121 
 148   0.0000       1.880741        51.1776 
 149   0.0000       1.884055        51.2678 
 150   0.0000       1.904150        51.8146 
 151   0.0000       1.911264        52.0082 
 152   0.0000       1.917437        52.1761 
 153   0.0000       1.941143        52.8212 
 154   0.0000       1.967433        53.5366 
 155   0.0000       1.986569        54.0573 
 156   0.0000       2.010857        54.7182 
 157   0.0000       2.030297        55.2472 
 158   0.0000       2.036111        55.4054 
 159   0.0000       2.042438        55.5776 
 160   0.0000       2.070971        56.3540 
 161   0.0000       2.099156        57.1209 
 162   0.0000       2.123476        57.7827 
 163   0.0000       2.146413        58.4069 
 164   0.0000       2.160103        58.7794 
 165   0.0000       2.216343        60.3098 
 166   0.0000       2.250904        61.2502 
 167   0.0000       2.286639        62.2226 
 168   0.0000       2.319157        63.1075 
 169   0.0000       2.340610        63.6912 
 170   0.0000       2.365117        64.3581 
 171   0.0000       2.387146        64.9575 
 172   0.0000       2.404456        65.4286 
 173   0.0000       2.413105        65.6639 
 174   0.0000       2.438635        66.3586 
 175   0.0000       2.470577        67.2278 
 176   0.0000       2.491638        67.8009 
 177   0.0000       2.534105        68.9565 
 178   0.0000       2.587475        70.4088 
 179   0.0000       2.597971        70.6944 
 180   0.0000       2.620723        71.3135 
 181   0.0000       2.663946        72.4897 
 182   0.0000       2.670460        72.6669 
 183   0.0000       2.723324        74.1054 
 184   0.0000       2.746721        74.7421 
 185   0.0000       2.758396        75.0598 
 186   0.0000       2.805140        76.3318 
 187   0.0000       2.819318        76.7175 
 188   0.0000       2.824976        76.8715 
 189   0.0000       2.849078        77.5274 
 190   0.0000       2.863295        77.9142 
 191   0.0000       2.871983        78.1506 
 192   0.0000       2.909984        79.1847 
 193   0.0000       2.948624        80.2361 
 194   0.0000       2.970071        80.8197 
 195   0.0000       2.989171        81.3395 
 196   0.0000       3.028099        82.3988 
 197   0.0000       3.046116        82.8890 
 198   0.0000       3.067582        83.4732 
 199   0.0000       3.078758        83.7773 
 200   0.0000       3.101463        84.3951 
 201   0.0000       3.179189        86.5101 
 202   0.0000       3.232844        87.9701 
 203   0.0000       3.250567        88.4524 
 204   0.0000       3.292453        89.5922 
 205   0.0000       3.383657        92.0740 
 206   0.0000       3.386292        92.1457 
 207   0.0000       3.507217        95.4362 
 208   0.0000       3.650551        99.3365 
 209   0.0000       3.826375       104.1210 

                    ********************************
                    * MULLIKEN POPULATION ANALYSIS *
                    ********************************

-----------------------
MULLIKEN ATOMIC CHARGES
-----------------------
   0 C :   -0.133711
   1 C :   -0.087044
   2 C :    0.053126
   3 N :   -0.292625
   4 C :   -0.008776
   5 C :   -0.079279
   6 C :    0.213391
   7 O :   -0.242709
   8 O :   -0.206315
   9 N :   -0.251883
  10 H :    0.045525
  11 H :    0.030350
  12 H :    0.051832
  13 H :    0.033551
  14 H :    0.010301
  15 H :    0.032789
  16 H :    0.115046
  17 H :    0.116288
  18 H :    0.058137
  19 H :    0.042141
  20 H :    0.048869
  21 H :    0.194948
  22 H :    0.130193
  23 H :    0.125856
Sum of atomic charges:   -0.0000000

--------------------------------
MULLIKEN REDUCED ORBITAL CHARGES
--------------------------------
  0 C s       :     3.080801  s :     3.080801
      pz      :     1.036583  p :     3.017173
      px      :     0.979857
      py      :     1.000733
      dz2     :     0.007763  d :     0.035738
      dxz     :     0.006694
      dyz     :     0.006857
      dx2y2   :     0.007925
      dxy     :     0.006498
  1 C s       :     3.080414  s :     3.080414
      pz      :     0.978700  p :     2.972182
      px      :     0.970760
      py      :     1.022722
      dz2     :     0.007933  d :     0.034447
      dxz     :     0.005753
      dyz     :     0.006904
      dx2y2   :     0.007745
      dxy     :     0.006112
  2 C s       :     3.011166  s :     3.011166
      pz      :     0.915093  p :     2.883854
      px      :     0.987343
      py      :     0.981419
      dz2     :     0.011957  d :     0.051854
      dxz     :     0.010059
      dyz     :     0.012167
      dx2y2   :     0.010317
      dxy     :     0.007355
  3 N s       :     3.481052  s :     3.481052
      pz      :     1.061078  p :     3.792453
      px      :     1.142057
      py      :     1.589318
      dz2     :     0.003986  d :     0.019119
      dxz     :     0.001472
      dyz     :     0.007180
      dx2y2   :     0.005237
      dxy     :     0.001245
  4 C s       :     3.063013  s :     3.063013
      pz      :     0.957816  p :     2.912012
      px      :     0.939668
      py      :     1.014528
      dz2     :     0.007220  d :     0.033750
      dxz     :     0.006313
      dyz     :     0.006218
      dx2y2   :     0.007776
      dxy     :     0.006224
  5 C s       :     3.091739  s :     3.091739
      pz      :     0.990358  p :     2.930673
      px      :     0.886692
      py      :     1.053623
      dz2     :     0.011316  d :     0.056866
      dxz     :     0.014263
      dyz     :     0.007948
      dx2y2   :     0.012800
      dxy     :     0.010539
  6 C s       :     3.072477  s :     3.072477
      pz      :     0.918864  p :     2.582406
      px      :     0.800823
      py      :     0.862720
      dz2     :     0.027043  d :     0.131726
      dxz     :     0.030731
      dyz     :     0.014870
      dx2y2   :     0.033928
      dxy     :     0.025155
  7 O s       :     3.763737  s :     3.763737
      pz      :     1.536082  p :     4.460943
      px      :     1.535047
      py      :     1.389814
      dz2     :     0.002998  d :     0.018029
      dxz     :     0.004795
      dyz     :     0.002808
      dx2y2   :     0.003343
      dxy     :     0.004085
  8 O s       :     3.676489  s :     3.676489
      pz      :     1.676937  p :     4.517807
      px      :     1.211851
      py      :     1.629020
      dz2     :     0.001400  d :     0.012019
      dxz     :     0.004074
      dyz     :     0.002063
      dx2y2   :     0.001944
      dxy     :     0.002539
  9 N s       :     3.449095  s :     3.449095
      pz      :     1.495971  p :     3.785222
      px      :     1.065101
      py      :     1.224150
      dz2     :     0.004354  d :     0.017567
      dxz     :     0.003306
      dyz     :     0.001607
      dx2y2   :     0.005203
      dxy     :     0.003098
 10 H s       :     0.931961  s :     0.931961
      pz      :     0.009293  p :     0.022514
      px      :     0.005108
      py      :     0.008113
 11 H s       :     0.947993  s :     0.947993
      pz      :     0.004007  p :     0.021658
      px      :     0.005072
      py      :     0.012579
 12 H s       :     0.926386  s :     0.926386
      pz      :     0.003967  p :     0.021782
      px      :     0.004689
      py      :     0.013126
 13 H s       :     0.944350  s :     0.944350
      pz      :     0.009344  p :     0.022099
      px      :     0.005136
      py      :     0.007618
 14 H s       :     0.968988  s :     0.968988
      pz      :     0.003274  p :     0.020711
      px      :     0.004990
      py      :     0.012448
 15 H s       :     0.946268  s :     0.946268
      pz      :     0.008508  p :     0.020944
      px      :     0.004835
      py      :     0.007601
 16 H s       :     0.840747  s :     0.840747
      pz      :     0.016957  p :     0.044207
      px      :     0.011188
      py      :     0.016062
 17 H s       :     0.839555  s :     0.839555
      pz      :     0.007766  p :     0.044157
      px      :     0.023434
      py      :     0.012957
 18 H s       :     0.919762  s :     0.919762
      pz      :     0.009510  p :     0.022102
      px      :     0.005302
      py      :     0.007289
 19 H s       :     0.935674  s :     0.935674
      pz      :     0.003962  p :     0.022184
      px      :     0.005137
      py      :     0.013086
 20 H s       :     0.930856  s :     0.930856
      pz      :     0.003810  p :     0.020275
      px      :     0.003105
      py      :     0.013360
 21 H s       :     0.734979  s :     0.734979
      pz      :     0.020067  p :     0.070073
      px      :     0.027108
      py      :     0.022899
 22 H s       :     0.825985  s :     0.825985
      pz      :     0.012258  p :     0.043822
      px      :     0.009505
      py      :     0.022059
 23 H s       :     0.830572  s :     0.830572
      pz      :     0.019605  p :     0.043572
      px      :     0.009892
      py      :     0.014076


                     *******************************
                     * LOEWDIN POPULATION ANALYSIS *
                     *******************************

----------------------
LOEWDIN ATOMIC CHARGES
----------------------
   0 C :   -0.061722
   1 C :   -0.050494
   2 C :    0.003247
   3 N :   -0.148680
   4 C :   -0.036062
   5 C :   -0.037858
   6 C :    0.081871
   7 O :   -0.183962
   8 O :   -0.041893
   9 N :   -0.119298
  10 H :    0.022420
  11 H :    0.020095
  12 H :    0.034394
  13 H :    0.024803
  14 H :    0.000914
  15 H :    0.023305
  16 H :    0.063214
  17 H :    0.066045
  18 H :    0.038494
  19 H :    0.032439
  20 H :    0.034588
  21 H :    0.093610
  22 H :    0.070168
  23 H :    0.070360

-------------------------------
LOEWDIN REDUCED ORBITAL CHARGES
-------------------------------
  0 C s       :     2.849670  s :     2.849670
      pz      :     1.049177  p :     3.124689
      px      :     1.023377
      py      :     1.052136
      dz2     :     0.019256  d :     0.087363
      dxz     :     0.015564
      dyz     :     0.016902
      dx2y2   :     0.021141
      dxy     :     0.014500
  1 C s       :     2.855486  s :     2.855486
      pz      :     1.025514  p :     3.109508
      px      :     1.022714
      py      :     1.061280
      dz2     :     0.020198  d :     0.085500
      dxz     :     0.014069
      dyz     :     0.017112
      dx2y2   :     0.020655
      dxy     :     0.013466
  2 C s       :     2.847515  s :     2.847515
      pz      :     0.962325  p :     3.030835
      px      :     1.026432
      py      :     1.042078
      dz2     :     0.026726  d :     0.118403
      dxz     :     0.020221
      dyz     :     0.028907
      dx2y2   :     0.027139
      dxy     :     0.015409
  3 N s       :     3.164563  s :     3.164563
      pz      :     1.134783  p :     3.942214
      px      :     1.206681
      py      :     1.600750
      dz2     :     0.010107  d :     0.041902
      dxz     :     0.005031
      dyz     :     0.014520
      dx2y2   :     0.010640
      dxy     :     0.001604
  4 C s       :     2.855498  s :     2.855498
      pz      :     1.015023  p :     3.095566
      px      :     1.020710
      py      :     1.059833
      dz2     :     0.019031  d :     0.084998
      dxz     :     0.015518
      dyz     :     0.015815
      dx2y2   :     0.020867
      dxy     :     0.013768
  5 C s       :     2.859261  s :     2.859261
      pz      :     1.039957  p :     3.047686
      px      :     0.950626
      py      :     1.057103
      dz2     :     0.027524  d :     0.130911
      dxz     :     0.031419
      dyz     :     0.020636
      dx2y2   :     0.030279
      dxy     :     0.021053
  6 C s       :     2.874042  s :     2.874042
      pz      :     0.982703  p :     2.757644
      px      :     0.901841
      py      :     0.873100
      dz2     :     0.057095  d :     0.286442
      dxz     :     0.069303
      dyz     :     0.032553
      dx2y2   :     0.074089
      dxy     :     0.053402
  7 O s       :     3.560977  s :     3.560977
      pz      :     1.574626  p :     4.592711
      px      :     1.598387
      py      :     1.419698
      dz2     :     0.003971  d :     0.030275
      dxz     :     0.008989
      dyz     :     0.005265
      dx2y2   :     0.004692
      dxy     :     0.007357
  8 O s       :     3.407523  s :     3.407523
      pz      :     1.682549  p :     4.609451
      px      :     1.289922
      py      :     1.636980
      dz2     :     0.001911  d :     0.024918
      dxz     :     0.008907
      dyz     :     0.003008
      dx2y2   :     0.005040
      dxy     :     0.006051
  9 N s       :     3.149898  s :     3.149898
      pz      :     1.512426  p :     3.929555
      px      :     1.136484
      py      :     1.280644
      dz2     :     0.008351  d :     0.039846
      dxz     :     0.006812
      dyz     :     0.003431
      dx2y2   :     0.013265
      dxy     :     0.007986
 10 H s       :     0.909717  s :     0.909717
      pz      :     0.028464  p :     0.067863
      px      :     0.016874
      py      :     0.022525
 11 H s       :     0.914641  s :     0.914641
      pz      :     0.013137  p :     0.065264
      px      :     0.016395
      py      :     0.035732
 12 H s       :     0.900266  s :     0.900266
      pz      :     0.012328  p :     0.065340
      px      :     0.015806
      py      :     0.037206
 13 H s       :     0.910617  s :     0.910617
      pz      :     0.027766  p :     0.064580
      px      :     0.016073
      py      :     0.020742
 14 H s       :     0.934384  s :     0.934384
      pz      :     0.012143  p :     0.064703
      px      :     0.016064
      py      :     0.036496
 15 H s       :     0.914171  s :     0.914171
      pz      :     0.026189  p :     0.062524
      px      :     0.015372
      py      :     0.020962
 16 H s       :     0.822571  s :     0.822571
      pz      :     0.042935  p :     0.114215
      px      :     0.022948
      py      :     0.048332
 17 H s       :     0.819338  s :     0.819338
      pz      :     0.017572  p :     0.114616
      px      :     0.062822
      py      :     0.034222
 18 H s       :     0.895970  s :     0.895970
      pz      :     0.029714  p :     0.065536
      px      :     0.015904
      py      :     0.019918
 19 H s       :     0.902393  s :     0.902393
      pz      :     0.012248  p :     0.065168
      px      :     0.015811
      py      :     0.037109
 20 H s       :     0.899701  s :     0.899701
      pz      :     0.013573  p :     0.065712
      px      :     0.012887
      py      :     0.039252
 21 H s       :     0.724291  s :     0.724291
      pz      :     0.055270  p :     0.182099
      px      :     0.062716
      py      :     0.064113
 22 H s       :     0.814759  s :     0.814759
      pz      :     0.030452  p :     0.115073
      px      :     0.024624
      py      :     0.059998
 23 H s       :     0.814979  s :     0.814979
      pz      :     0.057269  p :     0.114661
      px      :     0.025523
      py      :     0.031869


                      *****************************
                      * MAYER POPULATION ANALYSIS *
                      *****************************

  NA   - Mulliken gross atomic population
  ZA   - Total nuclear charge
  QA   - Mulliken gross atomic charge
  VA   - Mayer's total valence
  BVA  - Mayer's bonded valence
  FA   - Mayer's free valence

  ATOM       NA         ZA         QA         VA         BVA        FA
  0 C      6.1337     6.0000    -0.1337     4.0126     4.0126    -0.0000
  1 C      6.0870     6.0000    -0.0870     4.0258     4.0258     0.0000
  2 C      5.9469     6.0000     0.0531     4.0387     4.0387     0.0000
  3 N      7.2926     7.0000    -0.2926     3.0104     3.0104    -0.0000
  4 C      6.0088     6.0000    -0.0088     3.9525     3.9525     0.0000
  5 C      6.0793     6.0000    -0.0793     3.9441     3.9441    -0.0000
  6 C      5.7866     6.0000     0.2134     4.2299     4.2299     0.0000
  7 O      8.2427     8.0000    -0.2427     2.2431     2.2431     0.0000
  8 O      8.2063     8.0000    -0.2063     2.2060     2.2060    -0.0000
  9 N      7.2519     7.0000    -0.2519     3.0723     3.0723    -0.0000
 10 H      0.9545     1.0000     0.0455     0.9960     0.9960    -0.0000
 11 H      0.9697     1.0000     0.0303     0.9775     0.9775     0.0000
 12 H      0.9482     1.0000     0.0518     0.9881     0.9881    -0.0000
 13 H      0.9664     1.0000     0.0336     0.9826     0.9826     0.0000
 14 H      0.9897     1.0000     0.0103     0.9690     0.9690    -0.0000
 15 H      0.9672     1.0000     0.0328     0.9787     0.9787     0.0000
 16 H      0.8850     1.0000     0.1150     0.9881     0.9881    -0.0000
 17 H      0.8837     1.0000     0.1163     0.9860     0.9860     0.0000
 18 H      0.9419     1.0000     0.0581     0.9909     0.9909     0.0000
 19 H      0.9579     1.0000     0.0421     0.9876     0.9876     0.0000
 20 H      0.9511     1.0000     0.0489     0.9780     0.9780    -0.0000
 21 H      0.8051     1.0000     0.1949     1.0139     1.0139    -0.0000
 22 H      0.8698     1.0000     0.1302     1.0020     1.0020    -0.0000
 23 H      0.8741     1.0000     0.1259     0.9949     0.9949     0.0000

  Mayer bond orders larger than 0.1
B(  0-C ,  1-C ) :   1.0685 B(  0-C ,  4-C ) :   1.0555 B(  0-C , 10-H ) :   0.9303 
B(  0-C , 11-H ) :   0.9403 B(  1-C ,  2-C ) :   1.0686 B(  1-C , 12-H ) :   0.9418 
B(  1-C , 13-H ) :   0.9466 B(  2-C ,  3-N ) :   1.0686 B(  2-C , 14-H ) :   0.9454 
B(  2-C , 15-H ) :   0.9425 B(  3-N , 16-H ) :   0.9611 B(  3-N , 17-H ) :   0.9600 
B(  4-C ,  5-C ) :   1.0357 B(  4-C , 18-H ) :   0.9427 B(  4-C , 19-H ) :   0.9378 
B(  5-C ,  6-C ) :   0.8867 B(  5-C ,  9-N ) :   1.1159 B(  5-C , 20-H ) :   0.9119 
B(  6-C ,  7-O ) :   2.1147 B(  6-C ,  8-O ) :   1.1639 B(  8-O , 21-H ) :   0.9358 
B(  9-N , 22-H ) :   0.9547 B(  9-N , 23-H ) :   0.9577 

-------
TIMINGS
-------

Total SCF time: 0 days 0 hours 1 min 23 sec 

Total time                  ....      83.836 sec
Sum of individual times     ....      83.718 sec  ( 99.9%)

Fock matrix formation       ....      81.412 sec  ( 97.1%)
  XC integration            ....       5.799 sec  (  7.1% of F)
    Basis function eval.    ....       1.739 sec  ( 30.0% of XC)
    Density eval.           ....       1.599 sec  ( 27.6% of XC)
    XC-Functional eval.     ....       0.254 sec  (  4.4% of XC)
    XC-Potential eval.      ....       1.889 sec  ( 32.6% of XC)
Diagonalization             ....       0.050 sec  (  0.1%)
Density matrix formation    ....       0.014 sec  (  0.0%)
Population analysis         ....       0.032 sec  (  0.0%)
Initial guess               ....       0.393 sec  (  0.5%)
Orbital Transformation      ....       0.000 sec  (  0.0%)
Orbital Orthonormalization  ....       0.000 sec  (  0.0%)
DIIS solution               ....       0.020 sec  (  0.0%)
SOSCF solution              ....       0.031 sec  (  0.0%)
Grid generation             ....       1.766 sec  (  2.1%)

-------------------------   --------------------
FINAL SINGLE POINT ENERGY      -496.085915812040
-------------------------   --------------------

------------------------------------------------------------------------------
                         ORCA SCF GRADIENT CALCULATION
------------------------------------------------------------------------------

Gradient of the Kohn-Sham DFT energy:
Kohn-Sham wavefunction type      ... RKS
Hartree-Fock exchange scaling    ...    0.250
Number of operators              ...    1
Number of atoms                  ...   24
Basis set dimensions             ...  210
Integral neglect threshold       ... 2.5e-011
Integral primitive cutoff        ... 2.5e-012

Nuclear repulsion gradient       ... done
One Electron Gradient            
  ECP gradient                   ... done
Pre-screening matrix             ... done
Starting the two electron gradient:
Two electron gradient done
Exchange-correlation gradient    ... done

------------------
CARTESIAN GRADIENT
------------------

   1   C   :   -0.008821693    0.005526453    0.007659622
   2   C   :    0.008694904   -0.003259424   -0.009618938
   3   C   :   -0.002583088    0.000165928    0.013893060
   4   N   :    0.013397040   -0.004553794    0.007679021
   5   C   :    0.008362320   -0.006678523   -0.003637772
   6   C   :   -0.017238733    0.002263366    0.011246665
   7   C   :   -0.019674488    0.010569709   -0.026102329
   8   O   :    0.029755094   -0.012470509    0.019048079
   9   O   :   -0.001495457    0.006827352   -0.008578871
  10   N   :   -0.000222260   -0.001397162   -0.008123899
  11   H   :    0.000821948   -0.005659132    0.001210924
  12   H   :    0.000256479    0.005123146   -0.002216120
  13   H   :    0.002359465   -0.006693436    0.002419516
  14   H   :    0.000728558    0.005182825   -0.003042927
  15   H   :   -0.003899282    0.000836012   -0.009357745
  16   H   :   -0.001131839   -0.004322352    0.004130659
  17   H   :    0.009267947    0.012406597   -0.015052713
  18   H   :   -0.021763182   -0.001773023    0.005104101
  19   H   :   -0.001687638    0.005568865   -0.007373186
  20   H   :    0.000072778   -0.006210640   -0.000757448
  21   H   :    0.001200328    0.004276020    0.001158274
  22   H   :   -0.013526690   -0.001381361    0.010862757
  23   H   :    0.009783475   -0.021699996   -0.007648485
  24   H   :    0.007344016    0.017353081    0.017097756

Difference to translation invariance:
           :    0.0000000000    0.0000000000   -0.0000000000

Norm of the cartesian gradient     ...    0.0844236017
RMS gradient                       ...    0.0099494169
MAX gradient                       ...    0.0297550936

-------
TIMINGS
-------

Total SCF gradient time            ...       27.451 sec

One electron gradient       ....       0.187 sec  (  0.7%)
Prescreening matrices       ....       0.084 sec  (  0.3%)
Two electron gradient       ....      21.237 sec  ( 77.4%)
XC gradient                 ....       5.840 sec  ( 21.3%)
------------------------------------------------------------------------------
                         ORCA GEOMETRY RELAXATION STEP
------------------------------------------------------------------------------

Reading the OPT-File                    .... done
Getting information on internals        .... done
Copying old internal coords+grads       .... done
Making the new internal coordinates     .... (new redundants).... done
Validating the new internal coordinates .... (new redundants).... done
Calculating the B-matrix                .... done
Calculating the G,G- and P matrices     .... done
Transforming gradient to internals      .... done
Projecting the internal gradient        .... done
Number of atoms                         ....  24
Number of internal coordinates          .... 119
Current Energy                          ....  -496.085915812 Eh
Current gradient norm                   ....     0.084423602 Eh/bohr
Maximum allowed component of the step   ....  0.300
Current trust radius                    ....  0.300
Evaluating the initial hessian          ....  (Almloef) done
Projecting the Hessian                  .... done
Forming the augmented Hessian           .... done
Diagonalizing the augmented Hessian     .... done
Last element of RFO vector              ....  0.963315191
Lowest eigenvalues of augmented Hessian:
 -0.016535124  0.009860523  0.010786559  0.010866340  0.010871385
Length of the computed step             ....  0.278592703
The final length of the internal step   ....  0.278592703
Converting the step to cartesian space:
 Initial RMS(Int)=    0.0255385512
Transforming coordinates:
 Iter   0:  RMS(Cart)=    0.0516705442 RMS(Int)=    0.8138329301
 Iter   1:  RMS(Cart)=    0.0018458382 RMS(Int)=    0.0013868103
 Iter   2:  RMS(Cart)=    0.0002179046 RMS(Int)=    0.0001091119
 Iter   3:  RMS(Cart)=    0.0000231457 RMS(Int)=    0.0000170866
 Iter   4:  RMS(Cart)=    0.0000029131 RMS(Int)=    0.0000016401
 Iter   5:  RMS(Cart)=    0.0000003310 RMS(Int)=    0.0000002331
 Iter   6:  RMS(Cart)=    0.0000000412 RMS(Int)=    0.0000000256
done
Storing new coordinates                 .... done

                                .--------------------.
          ----------------------|Geometry convergence|-------------------------
          Item                value                   Tolerance       Converged
          ---------------------------------------------------------------------
          RMS gradient        0.0073535879            0.0001000000      NO
          MAX gradient        0.0367561015            0.0003000000      NO
          RMS step            0.0255385512            0.0020000000      NO
          MAX step            0.0816960577            0.0040000000      NO
          ........................................................
          Max(Bonds)      0.0329      Max(Angles)    4.54
          Max(Dihed)        4.68      Max(Improp)    0.00
          ---------------------------------------------------------------------

The optimization has not yet converged - more geometry cycles are needed


    ---------------------------------------------------------------------------
                         Redundant Internal Coordinates
                            (Angstroem and degrees)

        Definition                    Value    dE/dq     Step     New-Value
    ----------------------------------------------------------------------------
     1. B(C   1,C   0)                1.5336  0.002539 -0.0035    1.5301   
     2. B(C   2,C   1)                1.5327  0.006388 -0.0087    1.5239   
     3. B(N   3,C   2)                1.4583 -0.000650  0.0008    1.4591   
     4. B(C   4,C   0)                1.5348  0.002455 -0.0034    1.5314   
     5. B(C   5,C   4)                1.5482  0.007771 -0.0112    1.5370   
     6. B(C   6,C   5)                1.5246 -0.004308  0.0057    1.5303   
     7. B(O   7,C   6)                1.2216  0.036756 -0.0184    1.2031   
     8. B(O   8,C   6)                1.3508  0.015127 -0.0121    1.3387   
     9. B(N   9,C   5)                1.4669  0.016560 -0.0200    1.4469   
    10. B(H  10,C   0)                1.1085  0.003921 -0.0059    1.1026   
    11. B(H  11,C   0)                1.1122  0.004415 -0.0067    1.1055   
    12. B(H  12,C   1)                1.1122  0.006763 -0.0103    1.1020   
    13. B(H  13,C   1)                1.1125  0.005482 -0.0083    1.1042   
    14. B(H  14,C   2)                1.1136  0.001217 -0.0019    1.1117   
    15. B(H  15,C   2)                1.1118  0.005936 -0.0090    1.1028   
    16. B(H  16,N   3)                1.0453  0.021317 -0.0284    1.0168   
    17. B(H  17,N   3)                1.0452  0.021840 -0.0291    1.0161   
    18. B(H  18,C   4)                1.1131  0.008106 -0.0124    1.1008   
    19. B(H  19,C   4)                1.1126  0.005883 -0.0089    1.1037   
    20. B(H  20,C   5)                1.1125  0.003728 -0.0057    1.1068   
    21. B(H  21,O   8)                0.9666  0.003932 -0.0040    0.9626   
    22. B(H  22,N   9)                1.0467  0.024114 -0.0323    1.0144   
    23. B(H  23,N   9)                1.0465  0.024581 -0.0329    1.0136   
    24. A(H  10,C   0,H  11)          109.84  0.001674   -1.15    108.69   
    25. A(C   4,C   0,H  11)          109.24  0.000537   -0.08    109.16   
    26. A(C   1,C   0,H  10)          107.58  0.000074    0.25    107.84   
    27. A(C   1,C   0,C   4)          111.42 -0.003145    0.84    112.26   
    28. A(C   1,C   0,H  11)          109.19  0.000868   -0.15    109.04   
    29. A(C   4,C   0,H  10)          109.55  0.000042    0.25    109.80   
    30. A(C   2,C   1,H  13)          109.40  0.002085   -0.26    109.15   
    31. A(H  12,C   1,H  13)          108.75  0.000162   -0.95    107.80   
    32. A(C   0,C   1,H  13)          109.60  0.002299   -0.21    109.39   
    33. A(C   2,C   1,H  12)          109.00  0.003237   -0.49    108.51   
    34. A(C   0,C   1,H  12)          109.41  0.000881    0.14    109.55   
    35. A(C   0,C   1,C   2)          110.65 -0.008525    1.72    112.37   
    36. A(H  14,C   2,H  15)          108.61  0.001828   -1.04    107.57   
    37. A(C   1,C   2,H  15)          109.28 -0.000565   -0.46    108.83   
    38. A(N   3,C   2,H  15)          108.91  0.002221   -0.64    108.27   
    39. A(N   3,C   2,H  14)          109.62 -0.007552    2.40    112.02   
    40. A(C   1,C   2,H  14)          109.94  0.004552   -0.68    109.26   
    41. A(C   1,C   2,N   3)          110.44 -0.000443    0.38    110.82   
    42. A(H  16,N   3,H  17)          107.79  0.004467   -1.08    106.70   
    43. A(C   2,N   3,H  17)          108.45 -0.006248    0.93    109.38   
    44. A(C   2,N   3,H  16)          109.23 -0.001163    0.09    109.31   
    45. A(C   0,C   4,H  19)          109.02  0.000778    0.11    109.13   
    46. A(C   5,C   4,H  18)          107.35  0.003937   -0.78    106.57   
    47. A(C   0,C   4,H  18)          107.96 -0.001267    0.67    108.63   
    48. A(C   0,C   4,C   5)          114.83 -0.006125    1.21    116.05   
    49. A(H  18,C   4,H  19)          108.04  0.000123   -0.66    107.37   
    50. A(C   5,C   4,H  19)          109.42  0.002821   -0.64    108.77   
    51. A(C   6,C   5,N   9)          110.81 -0.003829    1.26    112.07   
    52. A(C   4,C   5,C   6)          113.60  0.003580   -0.64    112.96   
    53. A(C   4,C   5,N   9)          108.17 -0.001381    0.58    108.75   
    54. A(N   9,C   5,H  20)          107.26  0.001003   -0.10    107.16   
    55. A(C   6,C   5,H  20)          107.79 -0.000004   -0.37    107.42   
    56. A(C   4,C   5,H  20)          109.02  0.000595   -0.75    108.27   
    57. A(C   5,C   6,O   8)          121.20  0.016110   -2.06    119.14   
    58. A(C   5,C   6,O   7)          120.29 -0.014557    2.00    122.30   
    59. A(O   7,C   6,O   8)          118.41 -0.001706    0.34    118.75   
    60. A(C   6,O   8,H  21)          122.46  0.030712   -4.54    117.92   
    61. A(H  22,N   9,H  23)          109.02  0.003599   -2.05    106.96   
    62. A(C   5,N   9,H  23)          109.83 -0.001956   -0.32    109.52   
    63. A(C   5,N   9,H  22)          110.65  0.004307   -1.35    109.31   
    64. D(C   2,C   1,C   0,C   4)    179.20 -0.000159    0.22    179.42   
    65. D(H  13,C   1,C   0,C   4)    -60.07 -0.001510    0.86    -59.20   
    66. D(H  12,C   1,C   0,H  10)    -61.00  0.002372   -1.30    -62.30   
    67. D(H  13,C   1,C   0,H  10)    179.84  0.000258   -0.11    179.74   
    68. D(C   2,C   1,C   0,H  10)     59.11  0.001609   -0.75     58.36   
    69. D(H  13,C   1,C   0,H  11)     60.69 -0.002270    1.20     61.89   
    70. D(H  12,C   1,C   0,C   4)     59.09  0.000604   -0.33     58.75   
    71. D(C   2,C   1,C   0,H  11)    -60.05 -0.000919    0.56    -59.48   
    72. D(H  12,C   1,C   0,H  11)    179.84 -0.000157    0.00    179.85   
    73. D(H  14,C   2,C   1,H  12)   -179.48  0.001942   -0.69   -180.17   
    74. D(H  14,C   2,C   1,C   0)     60.16  0.004070   -1.61     58.55   
    75. D(N   3,C   2,C   1,H  13)     60.41 -0.001466    0.53     60.93   
    76. D(H  14,C   2,C   1,H  13)    -60.69  0.005275   -2.27    -62.96   
    77. D(N   3,C   2,C   1,H  12)    -58.39 -0.004799    2.11    -56.28   
    78. D(H  15,C   2,C   1,H  13)   -179.80  0.000642   -0.32   -180.12   
    79. D(H  15,C   2,C   1,H  12)     61.40 -0.002691    1.27     62.67   
    80. D(H  15,C   2,C   1,C   0)    -58.95 -0.000563    0.35    -58.61   
    81. D(N   3,C   2,C   1,C   0)   -178.74 -0.002671    1.19   -177.55   
    82. D(H  17,N   3,C   2,H  15)     58.31 -0.000959    0.41     58.73   
    83. D(H  17,N   3,C   2,H  14)    -60.39 -0.000071    0.64    -59.74   
    84. D(H  17,N   3,C   2,C   1)    178.33 -0.000528   -0.32    178.01   
    85. D(H  16,N   3,C   2,H  14)     56.83  0.001101   -0.08     56.75   
    86. D(H  16,N   3,C   2,C   1)    -64.45  0.000644   -1.05    -65.50   
    87. D(H  16,N   3,C   2,H  15)    175.53  0.000213   -0.31    175.22   
    88. D(H  18,C   4,C   0,H  11)    -64.02  0.001003   -0.99    -65.01   
    89. D(H  18,C   4,C   0,H  10)    175.63 -0.001404    0.30    175.94   
    90. D(H  18,C   4,C   0,C   1)     56.71  0.000435   -0.70     56.01   
    91. D(C   5,C   4,C   0,H  11)     55.69  0.001202   -0.74     54.95   
    92. D(C   5,C   4,C   0,H  10)    -64.66 -0.001205    0.56    -64.10   
    93. D(H  19,C   4,C   0,C   1)    -60.42  0.000569   -0.33    -60.76   
    94. D(C   5,C   4,C   0,C   1)    176.41  0.000634   -0.44    175.97   
    95. D(H  19,C   4,C   0,H  11)    178.85  0.001137   -0.63    178.22   
    96. D(H  19,C   4,C   0,H  10)     58.50 -0.001270    0.67     59.17   
    97. D(H  20,C   5,C   4,H  19)    177.56  0.000710    0.35    177.91   
    98. D(H  20,C   5,C   4,H  18)     60.55 -0.003118    1.92     62.47   
    99. D(H  20,C   5,C   4,C   0)    -59.49 -0.000476    0.87    -58.62   
   100. D(N   9,C   5,C   4,H  19)     61.24 -0.000044    0.55     61.79   
   101. D(N   9,C   5,C   4,H  18)    -55.77 -0.003872    2.12    -53.65   
   102. D(N   9,C   5,C   4,C   0)   -175.81 -0.001230    1.07   -174.75   
   103. D(C   6,C   5,C   4,H  19)    -62.23  0.003464   -1.06    -63.29   
   104. D(C   6,C   5,C   4,H  18)   -179.24 -0.000364    0.50   -178.74   
   105. D(C   6,C   5,C   4,C   0)     60.72  0.002278   -0.55     60.17   
   106. D(O   8,C   6,C   5,H  20)     50.26  0.000267    1.13     51.39   
   107. D(O   8,C   6,C   5,N   9)    167.34 -0.000650    1.50    168.84   
   108. D(O   8,C   6,C   5,C   4)    -70.65 -0.002757    2.74    -67.90   
   109. D(O   7,C   6,C   5,H  20)   -126.10  0.003205   -4.22   -130.32   
   110. D(O   7,C   6,C   5,N   9)     -9.02  0.002287   -3.86    -12.88   
   111. D(O   7,C   6,C   5,C   4)    112.99  0.000181   -2.61    110.39   
   112. D(H  21,O   8,C   6,O   7)    171.88 -0.003352    4.68    176.56   
   113. D(H  21,O   8,C   6,C   5)     -4.55  0.000005   -0.63     -5.18   
   114. D(H  23,N   9,C   5,H  20)     58.06 -0.003602    1.98     60.04   
   115. D(H  23,N   9,C   5,C   6)    -59.35 -0.002094    1.80    -57.55   
   116. D(H  23,N   9,C   5,C   4)    175.51 -0.003089    1.35    176.87   
   117. D(H  22,N   9,C   5,H  20)    178.46  0.002365   -1.64    176.82   
   118. D(H  22,N   9,C   5,C   6)     61.06  0.003874   -1.83     59.23   
   119. D(H  22,N   9,C   5,C   4)    -64.08  0.002878   -2.27    -66.35   
    ----------------------------------------------------------------------------

         *************************************************************
         *                GEOMETRY OPTIMIZATION CYCLE   2            *
         *************************************************************
---------------------------------
CARTESIAN COORDINATES (ANGSTROEM)
---------------------------------
  C      0.985394   -0.033355    0.073338
  C      0.494880   -0.583765   -1.267483
  C     -1.025889   -0.632039   -1.352958
  N     -1.455785   -1.214548   -2.619728
  C      2.513804    0.000967    0.162038
  C      3.101986    0.628492    1.435872
  C      2.675958   -0.100961    2.711874
  O      3.448369   -0.747915    3.369412
  O      1.394112   -0.047857    3.094285
[...]
     70      -0.000619  -0.000089   0.000568  -0.000002  -0.000340   0.000528
     71      -0.003802  -0.000119  -0.000280   0.000018   0.000516  -0.000391
                 66         67         68         69         70         71    
      0      -0.003655   0.000082  -0.000112   0.000106   0.000044  -0.000153
      1      -0.023611  -0.000100   0.000033   0.000003  -0.000086   0.000688
      2       0.014392  -0.000041   0.000120  -0.000064  -0.000076  -0.000019
      3       0.001427  -0.000023   0.000180  -0.000037  -0.000338   0.000070
      4      -0.019898  -0.000018  -0.000180   0.000015  -0.000029  -0.000095
      5       0.005625   0.000009  -0.000051   0.000021   0.000224   0.000078
      6      -0.000831  -0.000000  -0.000113   0.000010   0.001042  -0.000010
      7      -0.003495  -0.000008   0.003552  -0.000002   0.000441   0.000060
      8       0.002436  -0.000006   0.000813  -0.000010  -0.001425   0.000022
      9       0.000021  -0.000005  -0.026206  -0.000027   0.067627  -0.000002
     10       0.000126   0.000003   0.024504  -0.000014   0.032232  -0.000019
     11      -0.000084  -0.000002  -0.045611   0.000013  -0.029625  -0.000013
     12      -0.012137  -0.000012   0.000002  -0.000100  -0.000013  -0.000066
     13      -0.069104   0.000057  -0.000029   0.000266   0.000011  -0.000087
     14       0.049135   0.000125  -0.000031   0.000192   0.000036  -0.000129
     15       0.001651   0.000824  -0.000007   0.001197   0.000007  -0.000534
     16      -0.005521   0.002073   0.000007  -0.001226  -0.000006   0.000567
     17       0.000171  -0.001466   0.000007  -0.000969  -0.000006   0.000013
     18      -0.000085   0.000199  -0.000002  -0.000075  -0.000002   0.000739
     19      -0.000075   0.000200  -0.000004   0.000146   0.000007  -0.002161
     20      -0.000463  -0.000040   0.000001   0.000165  -0.000007   0.001841
     21      -0.000037   0.000202  -0.000003  -0.000013  -0.000001  -0.000771
     22       0.000182   0.000003  -0.000000  -0.000102  -0.000004   0.000872
     23      -0.000055   0.000009  -0.000003   0.000019   0.000004  -0.000480
     24       0.000137   0.000054  -0.000004   0.000015  -0.000002   0.030130
     25      -0.000033  -0.000060   0.000003   0.000059  -0.000002  -0.044163
     26       0.000269  -0.000057  -0.000006  -0.000106   0.000002   0.031825
     27      -0.000012  -0.040164   0.000001  -0.005627   0.000004   0.000055
     28       0.000224   0.029266  -0.000013  -0.066522  -0.000015  -0.000283
     29      -0.000238  -0.031066  -0.000004  -0.043119  -0.000004   0.000106
     30       0.101135  -0.000117   0.000390  -0.000390   0.000143  -0.001133
     31       0.143862  -0.000119   0.000340  -0.000272  -0.000005  -0.000142
     32      -0.188253   0.000056  -0.000019   0.000322   0.000408   0.000602
     33      -0.054923   0.000101   0.000176  -0.000367  -0.000169   0.002110
     34       0.136524   0.000619  -0.000525   0.000169   0.000505  -0.005837
     35       0.017718   0.000196  -0.000096  -0.000085   0.000103   0.000651
     36      -0.062676  -0.000039   0.000288   0.000061  -0.000097  -0.000092
     37       0.168788   0.000081  -0.000014  -0.000133  -0.000113  -0.000389
     38       0.027191   0.000011   0.000041  -0.000017  -0.000332  -0.000592
     39       0.045676   0.000021  -0.001034   0.000031  -0.001281   0.000041
     40       0.068795   0.000074   0.000639   0.000006   0.000067   0.000105
     41      -0.096464  -0.000072  -0.001160  -0.000010  -0.001179  -0.000010
     42      -0.007758  -0.000023   0.003655  -0.000004  -0.000992   0.000219
     43       0.015521   0.000045  -0.006237   0.000021  -0.000921  -0.000506
     44       0.002076   0.000014   0.003319   0.000001  -0.000039  -0.000004
     45       0.018016   0.000014  -0.004038  -0.000022  -0.004869  -0.000038
     46       0.026133   0.000002  -0.008127  -0.000014  -0.006717   0.000013
     47      -0.031354  -0.000005   0.006378   0.000028   0.008451   0.000026
     48      -0.000918  -0.000037  -0.236644   0.000066  -0.153875  -0.000036
     49      -0.000861  -0.000052  -0.457479   0.000151  -0.361406   0.000022
     50      -0.000325   0.000053   0.600132  -0.000184   0.458726   0.000046
     51      -0.000045   0.000057   0.602118   0.000148  -0.787488   0.000024
     52       0.000347  -0.000008   0.090593   0.000031  -0.083286   0.000084
     53      -0.000025  -0.000002   0.015157  -0.000013  -0.039572   0.000014
     54       0.309942  -0.000378   0.000007   0.000565   0.000031  -0.000075
     55       0.404856  -0.000346  -0.000002  -0.000201   0.000047  -0.000068
     56      -0.617756   0.000562  -0.000017   0.000574  -0.000106   0.000842
     57      -0.163748  -0.000456  -0.000012   0.001011   0.000002   0.000566
     58       0.422115   0.000225   0.000106   0.000244  -0.000015  -0.000181
     59       0.034910  -0.000860  -0.000012   0.000807  -0.000012  -0.000142
     60      -0.020576   0.003270   0.000011  -0.004341  -0.000013   0.000151
     61       0.056586  -0.009439  -0.000020   0.008966   0.000018  -0.002939
     62       0.006346  -0.001001   0.000002   0.002477   0.000005  -0.000849
     63      -0.001851  -0.001010   0.000020   0.001235   0.000013  -0.469238
     64       0.000676   0.001009  -0.000036  -0.001729  -0.000009   0.710136
     65      -0.001508  -0.000461   0.000039   0.001072  -0.000053  -0.521133
     66      -0.002209   0.320946  -0.000053  -0.239280  -0.000071  -0.000517
     67      -0.001784  -0.737618   0.000123   0.533963   0.000151   0.002430
     68      -0.000311   0.000159  -0.000008  -0.030182  -0.000004  -0.000270
     69       0.000614   0.219014  -0.000007   0.306703   0.000102   0.000754
     70       0.001409   0.313450   0.000016   0.393553   0.000096   0.000852
     71      -0.000699   0.450720   0.000016   0.633509   0.000189   0.000490


-----------
IR SPECTRUM
-----------

 Mode    freq (cm**-1)   T**2         TX         TY         TZ
-------------------------------------------------------------------
   6:        44.57    5.139318  (  0.879956   1.507460   1.446568)
   7:        59.27    2.092680  (  0.646717   0.548973  -1.171779)
   8:        75.55    4.445018  ( -0.626838  -1.373184  -1.471889)
   9:        90.57    1.460520  (  0.731498   0.748270   0.604584)
  10:       142.12    2.904519  (  1.238087   0.139758  -1.162810)
  11:       152.66    0.756440  (  0.038985   0.224423  -0.839378)
  12:       195.99    4.277949  ( -1.250181  -1.548497  -0.563164)
  13:       227.24   37.211590  (  1.578725  -4.644583  -3.625888)
  14:       261.08   25.718748  (  4.308474   1.543453  -2.184845)
  15:       281.34   12.126192  ( -0.756623   1.969399   2.770412)
  16:       308.63   48.772219  (  5.366842   4.435686   0.542136)
  17:       325.58    7.338387  ( -1.755039  -1.589745  -1.315651)
  18:       413.99    9.881111  ( -1.580459  -2.188433  -1.610597)
  19:       483.67    1.855573  (  1.170047   0.354647  -0.600657)
  20:       522.72  129.792088  ( -3.714443  -6.626762  -8.490054)
  21:       550.42   10.848993  ( -1.891237  -1.375952  -2.319261)
  22:       668.87    8.795385  (  2.714457  -1.156384   0.299808)
  23:       746.73    4.845152  (  1.306103  -1.427026   1.050164)
  24:       765.32    2.082124  ( -0.367517   1.382753  -0.187219)
  25:       795.47   19.708834  ( -0.442298  -2.562749  -3.597989)
  26:       822.38  111.401088  ( -1.582331   9.367656   4.598297)
  27:       848.56   19.530806  ( -0.926973   2.128358   3.760535)
  28:       918.63  110.023571  (  7.919655   5.310224  -4.370831)
  29:       958.26   54.420207  (  5.178498   0.823928  -5.188883)
  30:       991.11    7.244208  ( -2.222357  -1.415349   0.549658)
  31:      1038.54   14.087492  ( -2.771210  -0.089521   2.529797)
  32:      1066.20    0.731612  (  0.175220   0.057091   0.835255)
  33:      1086.06    8.598046  (  0.639749   2.388804  -1.575558)
  34:      1094.55    1.271249  (  0.919014   0.638692   0.136873)
  35:      1138.97   17.018467  (  1.880133   1.634579   3.288118)
  36:      1149.57    3.973584  (  1.449351  -1.222592  -0.615008)
  37:      1170.93    7.096315  (  2.058780   1.450077  -0.868916)
  38:      1188.52    4.252875  ( -1.718060   0.281277  -1.105454)
  39:      1200.59    1.851863  (  0.047328  -1.068226   0.841734)
  40:      1253.05    0.391423  (  0.070916  -0.570721  -0.246317)
  41:      1260.60    0.959039  (  0.811755   0.222718  -0.500490)
  42:      1281.63  172.079042  (-11.477239   1.562816   6.157080)
  43:      1312.95   19.322744  ( -3.832741  -0.125294   2.148753)
  44:      1316.17    7.060955  ( -1.852829   0.243003   1.889161)
  45:      1327.14    4.870096  ( -0.562365  -1.070147  -1.846247)
  46:      1354.15    2.243775  ( -1.280763  -0.087747   0.771829)
  47:      1368.03  149.820591  ( 10.170594  -1.920994  -6.533711)
  48:      1401.86    9.627939  (  0.316502   0.061689  -3.086091)
  49:      1420.93   14.344049  (  3.132114  -0.474857  -2.075673)
  50:      1440.81   14.697467  ( -2.078439  -1.181118  -2.997085)
  51:      1460.55    5.202742  ( -1.493868   1.066903   1.353816)
  52:      1467.31    1.731699  (  1.210714  -0.434773  -0.277206)
  53:      1482.12    4.967208  (  1.001056  -0.622775  -1.891361)
  54:      1496.75    2.694118  ( -1.586426  -0.421123   0.005082)
  55:      1637.16   26.661525  (  2.601286  -1.782251   4.088816)
  56:      1650.98   26.867068  (  3.901982  -1.881939   2.846034)
  57:      1919.76  270.730231  ( 10.458292  -9.356000   8.591835)
  58:      2943.51   86.570910  (  3.134921  -7.492954  -4.538593)
  59:      3016.71   18.751292  (  1.775876  -2.878487  -2.704047)
  60:      3025.48   28.417646  (  3.063115  -4.150916  -1.343455)
  61:      3041.92   15.371233  ( -1.837718   0.129886   3.460803)
  62:      3054.61   29.270136  (  3.282020  -2.969774  -3.111097)
  63:      3074.41   25.475889  ( -2.158551  -2.173374   4.011607)
  64:      3083.08    3.687777  ( -1.064436  -1.057564   1.198463)
  65:      3109.50   23.772963  ( -0.148645   4.600167  -1.609140)
  66:      3122.77   26.889602  ( -0.016833  -4.533982   2.516410)
  67:      3526.24    5.176813  (  1.213073  -1.467688   1.245456)
  68:      3539.03    0.527317  (  0.417287  -0.570769  -0.165564)
  69:      3603.80    6.093528  ( -0.333963   2.317753   0.781035)
  70:      3625.71    1.904166  ( -1.121174  -0.475489   0.648879)
  71:      3858.80   53.935801  ( -4.991827   4.327424  -3.207939)

The first frequency considered to be a vibration is 6
The total number of vibrations considered is 66


--------------------------
THERMOCHEMISTRY AT 298.15K
--------------------------

Temperature         ... 298.15 K
Pressure            ... 1.00 atm
Total Mass          ... 146.19 AMU

Throughout the following assumptions are being made:
  (1) The electronic state is orbitally nondegenerate
  (2) There are no thermally accessible electronically excited states
  (3) Hindered rotations indicated by low frequency modes are not
      treated as such but are treated as vibrations and this may
      cause some error
  (4) All equations used are the standard statistical mechanics
      equations for an ideal gas
  (5) All vibrations are strictly harmonic

freq.      44.57  E(vib)   ...       0.53 
freq.      59.27  E(vib)   ...       0.51 
freq.      75.55  E(vib)   ...       0.49 
freq.      90.57  E(vib)   ...       0.47 
freq.     142.12  E(vib)   ...       0.41 
freq.     152.66  E(vib)   ...       0.40 
freq.     195.99  E(vib)   ...       0.36 
freq.     227.24  E(vib)   ...       0.33 
freq.     261.08  E(vib)   ...       0.30 
freq.     281.34  E(vib)   ...       0.28 
freq.     308.63  E(vib)   ...       0.26 
freq.     325.58  E(vib)   ...       0.24 
freq.     413.99  E(vib)   ...       0.19 
freq.     483.67  E(vib)   ...       0.15 
freq.     522.72  E(vib)   ...       0.13 
freq.     550.42  E(vib)   ...       0.12 
freq.     668.87  E(vib)   ...       0.08 
freq.     746.73  E(vib)   ...       0.06 
freq.     765.32  E(vib)   ...       0.06 
freq.     795.47  E(vib)   ...       0.05 
freq.     822.38  E(vib)   ...       0.05 
freq.     848.56  E(vib)   ...       0.04 
freq.     918.63  E(vib)   ...       0.03 
freq.     958.26  E(vib)   ...       0.03 
freq.     991.11  E(vib)   ...       0.02 
freq.    1038.54  E(vib)   ...       0.02 
freq.    1066.20  E(vib)   ...       0.02 
freq.    1086.06  E(vib)   ...       0.02 
freq.    1094.55  E(vib)   ...       0.02 
freq.    1138.97  E(vib)   ...       0.01 
freq.    1149.57  E(vib)   ...       0.01 
freq.    1170.93  E(vib)   ...       0.01 
freq.    1188.52  E(vib)   ...       0.01 
freq.    1200.59  E(vib)   ...       0.01 
freq.    1253.05  E(vib)   ...       0.01 
freq.    1260.60  E(vib)   ...       0.01 
freq.    1281.63  E(vib)   ...       0.01 
freq.    1312.95  E(vib)   ...       0.01 
freq.    1316.17  E(vib)   ...       0.01 
freq.    1327.14  E(vib)   ...       0.01 
freq.    1354.15  E(vib)   ...       0.01 
freq.    1368.03  E(vib)   ...       0.01 
freq.    1401.86  E(vib)   ...       0.00 
freq.    1420.93  E(vib)   ...       0.00 
freq.    1440.81  E(vib)   ...       0.00 
freq.    1460.55  E(vib)   ...       0.00 
freq.    1467.31  E(vib)   ...       0.00 
freq.    1482.12  E(vib)   ...       0.00 
freq.    1496.75  E(vib)   ...       0.00 
freq.    1637.16  E(vib)   ...       0.00 
freq.    1650.98  E(vib)   ...       0.00 
freq.    1919.76  E(vib)   ...       0.00 
freq.    2943.51  E(vib)   ...       0.00 
freq.    3016.71  E(vib)   ...       0.00 
freq.    3025.48  E(vib)   ...       0.00 
freq.    3041.92  E(vib)   ...       0.00 
freq.    3054.61  E(vib)   ...       0.00 
freq.    3074.41  E(vib)   ...       0.00 
freq.    3083.08  E(vib)   ...       0.00 
freq.    3109.50  E(vib)   ...       0.00 
freq.    3122.77  E(vib)   ...       0.00 
freq.    3526.24  E(vib)   ...       0.00 
freq.    3539.03  E(vib)   ...       0.00 
freq.    3603.80  E(vib)   ...       0.00 
freq.    3625.71  E(vib)   ...       0.00 
freq.    3858.80  E(vib)   ...       0.00 

------------
INNER ENERGY
------------

The inner energy is: U= E(el) + E(ZPE) + E(vib) + E(rot) + E(trans)
    E(el)   - is the total energy from the electronic structure calculation
              = E(kin-el) + E(nuc-el) + E(el-el) + E(nuc-nuc)
    E(ZPE)  - the the zero temperature vibrational energy from the frequency calculation
    E(vib)  - the the finite temperature correction to E(ZPE) due to population
              of excited vibrational states
    E(rot)  - is the rotational thermal energy
    E(trans)- is the translational thermal energy

Summary of contributions to the inner energy U:
Electronic energy                ...   -496.09927694 Eh
Zero point energy                ...      0.21246679 Eh     133.32 kcal/mol
Thermal vibrational correction   ...      0.00922511 Eh       5.79 kcal/mol
Thermal rotational correction    ...      0.00141627 Eh       0.89 kcal/mol
Thermal translational correction ...      0.00141627 Eh       0.89 kcal/mol
-----------------------------------------------------------------------
Total thermal energy                   -495.87475249 Eh


Summary of corrections to the electronic energy:
(perhaps to be used in another calculation)
Total thermal correction                  0.01205765 Eh       7.57 kcal/mol
Non-thermal (ZPE) correction              0.21246679 Eh     133.32 kcal/mol
-----------------------------------------------------------------------
Total correction                          0.22452445 Eh     140.89 kcal/mol


--------
ENTHALPY
--------

The enthalpy is H = U + kB*T
                kB is Boltzmann's constant
Total free energy                 ...   -495.87475249 Eh 
Thermal Enthalpy correction       ...      0.00094421 Eh       0.59 kcal/mol
-----------------------------------------------------------------------
Total Enthalpy                    ...   -495.87380829 Eh


Vibrational entropy computed according to the QRRHO of S. Grimme
Chem.Eur.J. 2012 18 9955

check  

-------
ENTROPY
-------

The entropy contributions are T*S = T*(S(el)+S(vib)+S(rot)+S(trans)
     S(el)   - electronic entropy
     S(vib)  - vibrational entropy
     S(rot)  - rotational entropy
     S(trans)- translational entropy
The entropies will be listed as mutliplied by the temperature to get
units of energy

Electronic entropy                ...      0.00000000 Eh      0.00 kcal/mol
Vibrational entropy               ...      0.01634571 Eh     10.26 kcal/mol
Rotational entropy                ...      0.01354034 Eh      8.50 kcal/mol
Translational entropy             ...      0.01940905 Eh     12.18 kcal/mol
-----------------------------------------------------------------------
Final entropy term                ...      0.04929510 Eh     30.93 kcal/mol


CAUTION: The rotational entropy is not quite correctly treated here
         because it includes a symmetry number that is not yet correctly
         implemented in ORCA!
For a nonlinear molecule the correct rotational entropy is:
    S(rot) = R*(ln(qrot/sn)+1.5)
    R    = 8.31441 J/mol/K = 1.987191683e-3 kcal/mol/K
    qrot = 1131942.2476252
    sn is the rotational symmetry number. We have assumed 3 here
       if it is different for your molecule then you should correct
       the printed rotational entropy by manually evaluating the equation
       as given above

For convenience we print out the resulting values for sn=1 - 12:
 sn= 1  qrot/sn= 1131942.2476 T*S(rot)=     9.15 kcal/mol T*S(tot)=    31.58 kcal/mol
 sn= 2  qrot/sn=  565971.1238 T*S(rot)=     8.74 kcal/mol T*S(tot)=    31.17 kcal/mol
 sn= 3  qrot/sn=  377314.0825 T*S(rot)=     8.50 kcal/mol T*S(tot)=    30.93 kcal/mol
 sn= 4  qrot/sn=  282985.5619 T*S(rot)=     8.33 kcal/mol T*S(tot)=    30.76 kcal/mol
 sn= 5  qrot/sn=  226388.4495 T*S(rot)=     8.19 kcal/mol T*S(tot)=    30.63 kcal/mol
 sn= 6  qrot/sn=  188657.0413 T*S(rot)=     8.09 kcal/mol T*S(tot)=    30.52 kcal/mol
 sn= 7  qrot/sn=  161706.0354 T*S(rot)=     7.99 kcal/mol T*S(tot)=    30.43 kcal/mol
 sn= 8  qrot/sn=  141492.7810 T*S(rot)=     7.92 kcal/mol T*S(tot)=    30.35 kcal/mol
 sn= 9  qrot/sn=  125771.3608 T*S(rot)=     7.85 kcal/mol T*S(tot)=    30.28 kcal/mol
 sn=10  qrot/sn=  113194.2248 T*S(rot)=     7.78 kcal/mol T*S(tot)=    30.22 kcal/mol
 sn=11  qrot/sn=  102903.8407 T*S(rot)=     7.73 kcal/mol T*S(tot)=    30.16 kcal/mol
 sn=12  qrot/sn=   94328.5206 T*S(rot)=     7.68 kcal/mol T*S(tot)=    30.11 kcal/mol


-------------------
GIBBS FREE ENTHALPY
-------------------

The Gibbs free enthalpy is G = H - T*S

Total enthalpy                    ...   -495.87380829 Eh 
Total entropy correction          ...     -0.04929510 Eh    -30.93 kcal/mol
-----------------------------------------------------------------------
Final Gibbs free enthalpy         ...   -495.92310339 Eh

For completeness - the Gibbs free enthalpy minus the electronic energy
G-E(el)                           ...      0.17617355 Eh    110.55 kcal/mol


Timings for individual modules:

Sum of individual times         ...     6204.546 sec (= 103.409 min)
GTO integral calculation        ...        3.965 sec (=   0.066 min)   0.1 %
SCF iterations                  ...      530.600 sec (=   8.843 min)   8.6 %
SCF Gradient evaluation         ...      247.623 sec (=   4.127 min)   4.0 %
Geometry relaxation             ...        3.552 sec (=   0.059 min)   0.1 %
Analytical frequency calculation...     5418.806 sec (=  90.313 min)  87.3 %
                             ****ORCA TERMINATED NORMALLY****
TOTAL RUN TIME: 0 days 1 hours 43 minutes 27 seconds 668 msec
