
                                 *****************
                                 * O   R   C   A *
                                 *****************

           --- An Ab Initio, DFT and Semiempirical electronic structure package ---

                  #######################################################
                  #                        -***-                        #
                  #  Department of molecular theory and spectroscopy    #
                  #              Directorship: Frank Neese              #
                  # Max Planck Institute for Chemical Energy Conversion #
                  #                  D-45470 Muelheim/Ruhr              #
                  #                       Germany                       #
                  #                                                     #
                  #                  All rights reserved                #
                  #                        -***-                        #
                  #######################################################


                         Program Version 4.0.0 -  RELEASE  -


 With contributions from (in alphabetic order):
   Daniel Aravena         : Magnetic Properties
   Michael Atanasov       : Ab Initio Ligand Field Theory
   Ute Becker             : Parallelization
   Martin Brehm           : Molecular dynamics
   Dmytro Bykov           : SCF Hessian
   Vijay G. Chilkuri      : MRCI spin determinant printing
   Dipayan Datta          : RHF DLPNO-CCSD density
   Achintya Kumar Dutta   : EOM-CC, STEOM-CC
   Dmitry Ganyushin       : Spin-Orbit,Spin-Spin,Magnetic field MRCI
   Yang Guo               : DLPNO-NEVPT2, CIM, IAO-localization
   Andreas Hansen         : Spin unrestricted coupled pair/coupled cluster methods
   Lee Huntington         : MR-EOM, pCC
   Robert Izsak           : Overlap fitted RIJCOSX, COSX-SCS-MP3, EOM
   Christian Kollmar      : KDIIS, OOCD, Brueckner-CCSD(T), CCSD density
   Simone Kossmann        : Meta GGA functionals, TD-DFT gradient, OOMP2, MP2 Hessian
   Martin Krupicka        : AUTO-CI
   Dagmar Lenk            : GEPOL surface
   Dimitrios Liakos       : Extrapolation schemes; parallel MDCI
   Dimitrios Manganas     : ROCIS; embedding schemes
   Dimitrios Pantazis     : SARC Basis sets
   Taras Petrenko         : DFT Hessian,TD-DFT gradient, ASA, ECA, R-Raman, ABS, FL, XAS/XES, NRVS
   Peter Pinski           : DLPNO-MP2
   Christoph Reimann      : Effective Core Potentials
   Marius Retegan         : Local ZFS, SOC
   Christoph Riplinger    : Optimizer, TS searches, QM/MM, DLPNO-CCSD(T), (RO)-DLPNO pert. Triples
   Tobias Risthaus        : Range-separated hybrids, TD-DFT gradient, RPA, STAB
   Michael Roemelt        : Restricted open shell CIS
   Masaaki Saitow         : Open-shell DLPNO
   Barbara Sandhoefer     : DKH picture change effects
   Kantharuban Sivalingam : CASSCF convergence, NEVPT2, FIC-MRCI
   Georgi Stoychev        : AutoAux
   Boris Wezisla          : Elementary symmetry handling
   Frank Wennmohs         : Technical directorship


 We gratefully acknowledge several colleagues who have allowed us to
 interface, adapt or use parts of their codes:
   Stefan Grimme, W. Hujo, H. Kruse,             : VdW corrections, initial TS optimization,
                  C. Bannwarth                     DFT functionals, gCP, sTDA/sTD-DF
   Ed Valeev                                     : LibInt (2-el integral package), F12 methods
   Garnet Chan, S. Sharma, J. Yang, R. Olivares  : DMRG
   Ulf Ekstrom                                   : XCFun DFT Library
   Mihaly Kallay                                 : mrcc  (arbitrary order and MRCC methods)
   Jiri Pittner, Ondrej Demel                    : Mk-CCSD
   Frank Weinhold                                : gennbo (NPA and NBO analysis)
   Christopher J. Cramer and Donald G. Truhlar   : smd solvation model


 Your calculation uses the libint2 library for the computation of 2-el integrals
 For citations please refer to: http://libint.valeyev.net

 This ORCA versions uses:
   CBLAS   interface :  Fast vector & matrix operations
   LAPACKE interface :  Fast linear algebra routines




*****************************************
The coordinations will be read from file: glycine.xyz
*****************************************


Your calculation utilizes the basis: def2-SVP
   F. Weigend and R. Ahlrichs, Phys. Chem. Chem. Phys. 7, 3297 (2005).

================================================================================
                                        WARNINGS
                       Please study these warnings very carefully!
================================================================================

Warning: TCutStore was < 0. Adjusted to Thresh (uncritical)

WARNING: Geometry Optimization
  ===> : Switching off AutoStart
         For restart on a previous wavefunction, please use MOREAD

INFO   : the flag for use of LIBINT has been found!

================================================================================
                                       INPUT FILE
================================================================================
NAME = glycine.inp
|  1> ! PBE0
|  2> ! opt anfreq
|  3> * xyzfile 0 1 glycine.xyz **                         ****END OF INPUT****
================================================================================

                       *****************************
                       * Geometry Optimization Run *
                       *****************************

Geometry optimization settings:
Update method            Update   .... BFGS
Choice of coordinates    CoordSys .... Redundant Internals
Initial Hessian          InHess   .... Almoef's Model

Convergence Tolerances:
Energy Change            TolE     .... 5.0000e-006 Eh
Max. Gradient            TolMAXG  .... 3.0000e-004 Eh/bohr
RMS Gradient             TolRMSG  .... 1.0000e-004 Eh/bohr
Max. Displacement        TolMAXD  .... 4.0000e-003 bohr
RMS Displacement         TolRMSD  .... 2.0000e-003 bohr

------------------------------------------------------------------------------
                        ORCA OPTIMIZATION COORDINATE SETUP
------------------------------------------------------------------------------

The optimization will be done in new redundant internal coordinates
Making redundant internal coordinates   ...  (new redundants) done
Evaluating the initial hessian          ...  (Almloef) done
Evaluating the coordinates              ...  done
Calculating the B-matrix                .... done
Calculating the G-matrix                .... done
Diagonalizing the G-matrix              .... done
The first mode is                       ....   12
The number of degrees of freedom        ....   24

    -----------------------------------------------------------------
                    Redundant Internal Coordinates


    -----------------------------------------------------------------
         Definition                    Initial Value    Approx d2E/dq
    -----------------------------------------------------------------
      1. B(C   1,C   0)                  1.5079         0.405101   
      2. B(O   2,C   1)                  1.2217         1.038558   
      3. B(O   3,C   1)                  1.3493         0.649749   
      4. B(N   4,C   0)                  1.4607         0.431642   
      5. B(H   5,C   0)                  1.1117         0.332485   
      6. B(H   6,C   0)                  1.1108         0.333595   
      7. B(H   7,O   3)                  0.9676         0.505723   
      8. B(H   8,N   4)                  1.0450         0.380541   
      9. B(H   9,N   4)                  1.0459         0.379234   
     10. A(H   5,C   0,H   6)          108.6796         0.283827   
     11. A(N   4,C   0,H   6)          109.0262         0.326004   
     12. A(C   1,C   0,N   4)          111.5117         0.375342   
     13. A(C   1,C   0,H   5)          109.3784         0.324384   
     14. A(N   4,C   0,H   5)          109.4968         0.325825   
     15. A(C   1,C   0,H   6)          108.6974         0.324562   
     16. A(O   2,C   1,O   3)          119.1523         0.474514   
     17. A(C   0,C   1,O   3)          120.1004         0.403114   
     18. A(C   0,C   1,O   2)          120.7473         0.438292   
     19. A(C   1,O   3,H   7)          121.5516         0.371335   
     20. A(H   8,N   4,H   9)          107.7157         0.290995   
     21. A(C   0,N   4,H   9)          108.6917         0.330140   
     22. A(C   0,N   4,H   8)          109.3984         0.330327   
     23. D(O   2,C   1,C   0,H   5)   -121.0487         0.012166   
     24. D(O   3,C   1,C   0,H   5)     58.9802         0.012166   
     25. D(O   2,C   1,C   0,H   6)    120.4315         0.012166   
     26. D(O   3,C   1,C   0,N   4)   -179.7598         0.012166   
     27. D(O   3,C   1,C   0,H   6)    -59.5396         0.012166   
     28. D(O   2,C   1,C   0,N   4)      0.2113         0.012166   
     29. D(H   7,O   3,C   1,C   0)      0.0373         0.031199   
     30. D(H   7,O   3,C   1,O   2)   -179.9343         0.031199   
     31. D(H   9,N   4,C   0,H   6)     59.5391         0.015885   
     32. D(H   9,N   4,C   0,H   5)    -59.2433         0.015885   
     33. D(H   9,N   4,C   0,C   1)    179.5657         0.015885   
     34. D(H   8,N   4,C   0,H   6)    176.9070         0.015885   
     35. D(H   8,N   4,C   0,H   5)     58.1246         0.015885   
     36. D(H   8,N   4,C   0,C   1)    -63.0664         0.015885   
    -----------------------------------------------------------------

Number of atoms                         .... 10
Number of degrees of freedom            .... 36

         *************************************************************
         *                GEOMETRY OPTIMIZATION CYCLE   1            *
         *************************************************************
---------------------------------
CARTESIAN COORDINATES (ANGSTROEM)
---------------------------------
  C      0.994020   -0.021070   -0.135220
  C      0.467970   -0.207520   -1.536080
  O      1.234060   -0.329230   -2.479890
  O     -0.862140   -0.241150   -1.760570
  N      2.454390   -0.007450   -0.108870
  H      0.618890   -0.843320    0.512160
  H      0.615650    0.944990    0.261600
  H     -1.499900   -0.147310   -1.039030
  H      2.815990   -0.933240   -0.431550
  H      2.770540    0.131150    0.878430

----------------------------
CARTESIAN COORDINATES (A.U.)
----------------------------
  NO LB      ZA    FRAG     MASS         X           Y           Z
   0 C     6.0000    0    12.011    1.878426   -0.039817   -0.255529
   1 C     6.0000    0    12.011    0.884335   -0.392156   -2.902771
   2 O     8.0000    0    15.999    2.332035   -0.622155   -4.686313
   3 O     8.0000    0    15.999   -1.629208   -0.455707   -3.326995
   4 N     7.0000    0    14.007    4.638125   -0.014078   -0.205734
   5 H     1.0000    0     1.008    1.169533   -1.593644    0.967842
   6 H     1.0000    0     1.008    1.163410    1.785772    0.494352
   7 H     1.0000    0     1.008   -2.834400   -0.278376   -1.963482
   8 H     1.0000    0     1.008    5.321450   -1.763568   -0.815511
   9 H     1.0000    0     1.008    5.235562    0.247838    1.659992

--------------------------------
INTERNAL COORDINATES (ANGSTROEM)
--------------------------------
 C      0   0   0     0.000000000000     0.00000000     0.00000000
 C      1   0   0     1.507945935569     0.00000000     0.00000000
 O      2   1   0     1.221672840125   120.74725883     0.00000000
 O      2   1   3     1.349340338499   120.10044445   180.02890524
 N      1   2   3     1.460671203180   111.51172347     0.21125989
 H      1   2   3     1.111718689148   109.37841616   238.95128642
 H      1   2   3     1.110811366930   108.69743291   120.43145243
 H      4   2   1     0.967555546106   121.55161205     0.03730046
 H      5   1   2     1.044970844809   109.39844157   296.93355964
 H      5   1   2     1.045907296322   108.69168728   179.56566346

---------------------------
INTERNAL COORDINATES (A.U.)
---------------------------
 C      0   0   0     0.000000000000     0.00000000     0.00000000
 C      1   0   0     2.849604842986     0.00000000     0.00000000
 O      2   1   0     2.308627093087   120.74725883     0.00000000
 O      2   1   3     2.549883701215   120.10044445   180.02890524
 N      1   2   3     2.760268545716   111.51172347     0.21125989
 H      1   2   3     2.100843860451   109.37841616   238.95128642
 H      1   2   3     2.099129269944   108.69743291   120.43145243
 H      4   2   1     1.828415001496   121.55161205     0.03730046
 H      5   1   2     1.974708714621   109.39844157   296.93355964
 H      5   1   2     1.976478351519   108.69168728   179.56566346

---------------------
BASIS SET INFORMATION
---------------------
There are 4 groups of distinct atoms

 Group   1 Type C   : 7s4p1d contracted to 3s2p1d pattern {511/31/1}
 Group   2 Type O   : 7s4p1d contracted to 3s2p1d pattern {511/31/1}
 Group   3 Type N   : 7s4p1d contracted to 3s2p1d pattern {511/31/1}
 Group   4 Type H   : 4s1p contracted to 2s1p pattern {31/1}

Atom   0C    basis set group =>   1
Atom   1C    basis set group =>   1
Atom   2O    basis set group =>   2
Atom   3O    basis set group =>   2
Atom   4N    basis set group =>   3
Atom   5H    basis set group =>   4
Atom   6H    basis set group =>   4
Atom   7H    basis set group =>   4
Atom   8H    basis set group =>   4
Atom   9H    basis set group =>   4
-------------------------
ECP PARAMETER INFORMATION
-------------------------



------------------------------------------------------------------------------
                           ORCA GTO INTEGRAL CALCULATION
------------------------------------------------------------------------------

                         BASIS SET STATISTICS AND STARTUP INFO

 # of primitive gaussian shells          ...   85
 # of primitive gaussian functions       ...  155
 # of contracted shells                  ...   45
 # of contracted basis functions         ...   95
 Highest angular momentum                ...    2
 Maximum contraction depth               ...    5
 Integral package used                   ... LIBINT
 Integral threshhold            Thresh   ... 2.500e-011
 Primitive cut-off              TCut     ... 2.500e-012


------------------------------ INTEGRAL EVALUATION ----------------------------


 * One electron integrals 

   ECP integrals                          Pre-screening matrix                    ... done
 Shell pair data                         ... done (   0.000 sec)

Timings:
 Total evaluation time               ...     0.001 sec (   0.000 min)
 One electron matrix time            ...     0.007 sec (   0.000 min) =700.0%
 Schwartz matrix evaluation time     ...     0.086 sec (   0.001 min) =8600.0%

-------------------------------------------------------------------------------
                                 ORCA SCF
-------------------------------------------------------------------------------

------------
SCF SETTINGS
------------
Hamiltonian:
 Density Functional     Method          .... DFT(GTOs)
 Exchange Functional    Exchange        .... PBE
   PBE kappa parameter   XKappa         ....  0.804000
   PBE mue parameter    XMuePBE         ....  0.219520
 Correlation Functional Correlation     .... PBE
   PBE beta parameter  CBetaPBE         ....  0.066725
 LDA part of GGA corr.  LDAOpt          .... PW91-LDA
 Gradients option       PostSCFGGA      .... off
 Hybrid DFT is turned on
   Fraction HF Exchange ScalHFX         ....  0.250000
   Scaling of DF-GGA-X  ScalDFX         ....  0.750000
   Scaling of DF-GGA-C  ScalDFC         ....  1.000000
   Scaling of DF-LDA-C  ScalLDAC        ....  1.000000
   Perturbative correction              ....  0.000000
   NL short-range parameter             ....  6.900000


General Settings:
 Integral files         IntName         .... glycine
 Hartree-Fock type      HFTyp           .... RHF
 Total Charge           Charge          ....    0
 Multiplicity           Mult            ....    1
 Number of Electrons    NEL             ....   40
 Basis Dimension        Dim             ....   95
 Nuclear Repulsion      ENuc            ....    178.2494179051 Eh

Convergence Acceleration:
 DIIS                   CNVDIIS         .... on
   Start iteration      DIISMaxIt       ....    12
   Startup error        DIISStart       ....  0.200000
   # of expansion vecs  DIISMaxEq       ....     5
   Bias factor          DIISBfac        ....   1.050
   Max. coefficient     DIISMaxC        ....  10.000
 Newton-Raphson         CNVNR           .... off
 SOSCF                  CNVSOSCF        .... on
   Start iteration      SOSCFMaxIt      ....   150
   Startup grad/error   SOSCFStart      ....  0.003300
 Level Shifting         CNVShift        .... on
   Level shift para.    LevelShift      ....    0.2500
   Turn off err/grad.   ShiftErr        ....    0.0010
 Zerner damping         CNVZerner       .... off
 Static damping         CNVDamp         .... on
   Fraction old density DampFac         ....    0.7000
   Max. Damping (<1)    DampMax         ....    0.9800
   Min. Damping (>=0)   DampMin         ....    0.0000
   Turn off err/grad.   DampErr         ....    0.1000
 Fernandez-Rico         CNVRico         .... off

SCF Procedure:
 Maximum # iterations   MaxIter         ....   125
 SCF integral mode      SCFMode         .... Direct
   Integral package                     .... LIBINT
 Reset frequeny         DirectResetFreq ....    20
 Integral Threshold     Thresh          .... 2.500e-011 Eh
 Primitive CutOff       TCut            .... 2.500e-012 Eh

Convergence Tolerance:
 Convergence Check Mode ConvCheckMode   .... Total+1el-Energy
 Convergence forced     ConvForced      .... 0
 Energy Change          TolE            .... 1.000e-008 Eh
 1-El. energy change                    .... 1.000e-005 Eh
 Orbital Gradient       TolG            .... 1.000e-005
 Orbital Rotation angle TolX            .... 1.000e-005
 DIIS Error             TolErr          .... 5.000e-007


Diagonalization of the overlap matrix:
Smallest eigenvalue                        ... 2.237e-003
Time for diagonalization                   ...    0.004 sec
Threshold for overlap eigenvalues          ... 1.000e-008
Number of eigenvalues below threshold      ... 0
Time for construction of square roots      ...    0.003 sec
Total time needed                          ...    0.007 sec

-------------------
DFT GRID GENERATION
-------------------

General Integration Accuracy     IntAcc      ...  4.340
Radial Grid Type                 RadialGrid  ... Gauss-Chebyshev
Angular Grid (max. acc.)         AngularGrid ... Lebedev-110
Angular grid pruning method      GridPruning ... 3 (G Style)
Weight generation scheme         WeightScheme... Becke
Basis function cutoff            BFCut       ...   1.0000e-011
Integration weight cutoff        WCut        ...   1.0000e-014
Grids for H and He will be reduced by one unit

# of grid points (after initial pruning)     ...  12416 (   0.0 sec)
# of grid points (after weights+screening)   ...  11815 (   0.0 sec)
nearest neighbour list constructed           ...    0.0 sec
Grid point re-assignment to atoms done       ...    0.0 sec
Grid point division into batches done        ...    0.0 sec
Reduced shell lists constructed in    0.0 sec

Total number of grid points                  ...    11815
Total number of batches                      ...      189
Average number of points per batch           ...       62
Average number of grid points per atom       ...     1182
Average number of shells per batch           ...    35.62 (79.16%)
Average number of basis functions per batch  ...    75.17 (79.12%)
Average number of large shells per batch     ...    29.84 (83.76%)
Average number of large basis fcns per batch ...    61.50 (81.82%)
Maximum spatial batch extension              ...  18.61, 25.60, 18.68 au
Average spatial batch extension              ...   3.94,  4.28,  4.04 au

Time for grid setup =    0.054 sec

------------------------------
INITIAL GUESS: MODEL POTENTIAL
------------------------------
Loading Hartree-Fock densities                     ... done
Calculating cut-offs                               ... done
Setting up the integral package                    ... done
Initializing the effective Hamiltonian             ... done
Starting the Coulomb interaction                   ... done (   0.0 sec)
Reading the grid                                   ... done
Mapping shells                                     ... done
Starting the XC term evaluation                    ... done (   0.0 sec)
  promolecular density results
     # of electrons  =     39.990811031
     EX              =    -34.516877997
     EC              =     -1.325491026
     EX+EC           =    -35.842369023
Transforming the Hamiltonian                       ... done (   0.0 sec)
Diagonalizing the Hamiltonian                      ... done (   0.0 sec)
Back transforming the eigenvectors                 ... done (   0.0 sec)
Now organizing SCF variables                       ... done
                      ------------------
                      INITIAL GUESS DONE (   0.2 sec)
                      ------------------
--------------
SCF ITERATIONS
--------------
ITER       Energy         Delta-E        Max-DP      RMS-DP      [F,P]     Damp
               ***  Starting incremental Fock matrix formation  ***
  0   -283.6706567945   0.000000000000 0.10148786  0.00450325  0.2623432 0.7000
  1   -283.7770349138  -0.106378119310 0.06568796  0.00276700  0.1069114 0.7000
                               ***Turning on DIIS***
  2   -283.8127272987  -0.035692384914 0.06101531  0.00342874  0.0369603 0.0000
  3   -283.8750675797  -0.062340280972 0.05927286  0.00209512  0.0600842 0.0000
  4   -283.8870663150  -0.011998735360 0.01096021  0.00053856  0.0146288 0.0000
  5   -283.8879186398  -0.000852324767 0.00391748  0.00015391  0.0033869 0.0000
                      *** Initiating the SOSCF procedure ***
                           *** Shutting down DIIS ***
                      *** Re-Reading the Fockian *** 
                      *** Removing any level shift *** 
ITER      Energy       Delta-E        Grad      Rot      Max-DP    RMS-DP
  6   -283.88794722  -0.0000285787  0.000302  0.000302  0.001003  0.000052
               *** Restarting incremental Fock matrix formation ***
  7   -283.88795206  -0.0000048446  0.000178  0.000523  0.000807  0.000036
  8   -283.88795255  -0.0000004871  0.000110  0.000154  0.000286  0.000015
  9   -283.88795285  -0.0000002977  0.000034  0.000107  0.000173  0.000008
 10   -283.88795287  -0.0000000261  0.000023  0.000018  0.000058  0.000002
 11   -283.88795288  -0.0000000065  0.000010  0.000022  0.000028  0.000001
 12   -283.88795288  -0.0000000011  0.000008  0.000011  0.000012  0.000001
 13   -283.88795288   0.0000000001  0.000005  0.000007  0.000010  0.000001
                  ***Gradient check signals convergence***
              ***Rediagonalizing the Fockian in SOSCF/NRSCF***

               *****************************************************
               *                     SUCCESS                       *
               *           SCF CONVERGED AFTER  14 CYCLES          *
               *****************************************************

Setting up the final grid:

General Integration Accuracy     IntAcc      ...  4.670
Radial Grid Type                 RadialGrid  ... Gauss-Chebyshev
Angular Grid (max. acc.)         AngularGrid ... Lebedev-302
Angular grid pruning method      GridPruning ... 3 (G Style)
Weight generation scheme         WeightScheme... Becke
Basis function cutoff            BFCut       ...   1.0000e-011
Integration weight cutoff        WCut        ...   1.0000e-014
Grids for H and He will be reduced by one unit

# of grid points (after initial pruning)     ...  48030 (   0.0 sec)
# of grid points (after weights+screening)   ...  45346 (   0.0 sec)
nearest neighbour list constructed           ...    0.0 sec
Grid point re-assignment to atoms done       ...    0.0 sec
Grid point division into batches done        ...    0.1 sec
Reduced shell lists constructed in    0.2 sec

Total number of grid points                  ...    45346
Total number of batches                      ...      714
Average number of points per batch           ...       63
Average number of grid points per atom       ...     4535
Average number of shells per batch           ...    32.60 (72.44%)
Average number of basis functions per batch  ...    68.23 (71.82%)
Average number of large shells per batch     ...    26.72 (81.96%)
Average number of large basis fcns per batch ...    54.55 (79.95%)
Maximum spatial batch extension              ...  16.07, 21.88, 17.83 au
Average spatial batch extension              ...   2.62,  2.76,  2.69 au

Final grid set up in    0.3 sec
Final integration                            ... done (   0.2 sec)
Change in XC energy                          ...    -0.000700796
Integrated number of electrons               ...    39.999961757
Previous integrated no of electrons          ...    39.994655250

----------------
TOTAL SCF ENERGY
----------------

Total Energy       :         -283.88865368 Eh           -7725.00300 eV

Components:
Nuclear Repulsion  :          178.24941791 Eh            4850.41325 eV
Electronic Energy  :         -462.13807158 Eh          -12575.41625 eV
One Electron Energy:         -740.58535926 Eh          -20152.35215 eV
Two Electron Energy:          278.44728768 Eh            7576.93590 eV

Virial components:
Potential Energy   :         -565.34936487 Eh          -15383.93832 eV
Kinetic Energy     :          281.46071119 Eh            7658.93532 eV
Virial Ratio       :            2.00862622


DFT components:
N(Alpha)           :       19.999980878432 electrons
N(Beta)            :       19.999980878432 electrons
N(Total)           :       39.999961756863 electrons
E(X)               :      -26.312264312335 Eh       
E(C)               :       -1.346670461001 Eh       
E(XC)              :      -27.658934773337 Eh       

---------------
SCF CONVERGENCE
---------------

  Last Energy change         ...  -6.2607e-010  Tolerance :  1.0000e-008
  Last MAX-Density change    ...   2.5272e-006  Tolerance :  1.0000e-007
  Last RMS-Density change    ...   1.4038e-007  Tolerance :  5.0000e-009
  Last Orbital Gradient      ...   7.4774e-007  Tolerance :  1.0000e-005
  Last Orbital Rotation      ...   1.2069e-006  Tolerance :  1.0000e-005

             **** THE GBW FILE WAS UPDATED (glycine.gbw) ****
             **** DENSITY FILE WAS UPDATED (glycine.scfp.tmp) ****
             **** ENERGY FILE WAS UPDATED (glycine.en.tmp) ****
----------------
ORBITAL ENERGIES
----------------

  NO   OCC          E(Eh)            E(eV) 
   0   2.0000     -19.259158      -524.0683 
   1   2.0000     -19.188657      -522.1499 
   2   2.0000     -14.381541      -391.3416 
   3   2.0000     -10.363956      -282.0176 
   4   2.0000     -10.284145      -279.8458 
   5   2.0000      -1.115030       -30.3415 
   6   2.0000      -1.024704       -27.8836 
   7   2.0000      -0.901577       -24.5332 
   8   2.0000      -0.727318       -19.7913 
   9   2.0000      -0.649740       -17.6803 
  10   2.0000      -0.545718       -14.8497 
  11   2.0000      -0.502688       -13.6788 
  12   2.0000      -0.481932       -13.1140 
  13   2.0000      -0.457555       -12.4507 
  14   2.0000      -0.436318       -11.8728 
  15   2.0000      -0.408889       -11.1264 
  16   2.0000      -0.382553       -10.4098 
  17   2.0000      -0.327596        -8.9143 
  18   2.0000      -0.283138        -7.7046 
  19   2.0000      -0.254344        -6.9211 
  20   0.0000       0.012688         0.3453 
  21   0.0000       0.039255         1.0682 
  22   0.0000       0.057689         1.5698 
  23   0.0000       0.110703         3.0124 
  24   0.0000       0.124457         3.3866 
  25   0.0000       0.147563         4.0154 
  26   0.0000       0.214114         5.8263 
  27   0.0000       0.222819         6.0632 
  28   0.0000       0.303845         8.2680 
  29   0.0000       0.359514         9.7829 
  30   0.0000       0.444243        12.0885 
  31   0.0000       0.478648        13.0247 
  32   0.0000       0.488334        13.2882 
  33   0.0000       0.535100        14.5608 
  34   0.0000       0.567306        15.4372 
  35   0.0000       0.583127        15.8677 
  36   0.0000       0.620516        16.8851 
  37   0.0000       0.639230        17.3943 
  38   0.0000       0.653438        17.7810 
  39   0.0000       0.667887        18.1741 
  40   0.0000       0.674365        18.3504 
  41   0.0000       0.699098        19.0234 
  42   0.0000       0.793397        21.5894 
  43   0.0000       0.830488        22.5987 
  44   0.0000       0.880413        23.9573 
  45   0.0000       0.906301        24.6617 
  46   0.0000       0.949117        25.8268 
  47   0.0000       0.982521        26.7357 
  48   0.0000       0.999539        27.1988 
  49   0.0000       1.092452        29.7271 
  50   0.0000       1.127441        30.6792 
  51   0.0000       1.213778        33.0286 
  52   0.0000       1.238211        33.6934 
  53   0.0000       1.252829        34.0912 
  54   0.0000       1.353086        36.8193 
  55   0.0000       1.398099        38.0442 
  56   0.0000       1.407267        38.2937 
  57   0.0000       1.490223        40.5510 
  58   0.0000       1.579866        42.9903 
  59   0.0000       1.590642        43.2836 
  60   0.0000       1.629000        44.3274 
  61   0.0000       1.646326        44.7988 
  62   0.0000       1.707262        46.4569 
  63   0.0000       1.738568        47.3088 
  64   0.0000       1.751980        47.6738 
  65   0.0000       1.797245        48.9055 
  66   0.0000       1.839112        50.0448 
  67   0.0000       1.879101        51.1329 
  68   0.0000       1.907079        51.8943 
  69   0.0000       1.984012        53.9877 
  70   0.0000       2.020304        54.9753 
  71   0.0000       2.064652        56.1820 
  72   0.0000       2.147642        58.4403 
  73   0.0000       2.191598        59.6364 
  74   0.0000       2.255671        61.3799 
  75   0.0000       2.330932        63.4279 
  76   0.0000       2.348861        63.9158 
  77   0.0000       2.472075        67.2686 
  78   0.0000       2.639366        71.8208 
  79   0.0000       2.657469        72.3134 
  80   0.0000       2.716760        73.9268 
  81   0.0000       2.741257        74.5934 
  82   0.0000       2.798136        76.1412 
  83   0.0000       2.834534        77.1316 
  84   0.0000       2.844278        77.3967 
  85   0.0000       2.949054        80.2478 
  86   0.0000       3.010892        81.9305 
  87   0.0000       3.048504        82.9540 
  88   0.0000       3.184683        86.6596 
  89   0.0000       3.216393        87.5225 
  90   0.0000       3.287001        89.4438 
  91   0.0000       3.372381        91.7671 
  92   0.0000       3.497151        95.1623 
  93   0.0000       3.648139        99.2709 
  94   0.0000       3.817620       103.8827 

                    ********************************
                    * MULLIKEN POPULATION ANALYSIS *
                    ********************************

-----------------------
MULLIKEN ATOMIC CHARGES
-----------------------
   0 C :   -0.012722
   1 C :    0.187295
   2 O :   -0.235506
   3 O :   -0.208746
   4 N :   -0.277900
   5 H :    0.047055
   6 H :    0.064283
   7 H :    0.191266
   8 H :    0.127980
   9 H :    0.116996
Sum of atomic charges:   -0.0000000

--------------------------------
MULLIKEN REDUCED ORBITAL CHARGES
--------------------------------
  0 C s       :     3.001895  s :     3.001895
      pz      :     1.026985  p :     2.961809
      px      :     0.889954
      py      :     1.044870
      dz2     :     0.008164  d :     0.049018
      dxz     :     0.012334
      dyz     :     0.005563
      dx2y2   :     0.010599
      dxy     :     0.012358
  1 C s       :     3.072326  s :     3.072326
      pz      :     0.998189  p :     2.606527
      px      :     0.787699
      py      :     0.820639
      dz2     :     0.039203  d :     0.133853
      dxz     :     0.031922
      dyz     :     0.014077
      dx2y2   :     0.025090
      dxy     :     0.023561
  2 O s       :     3.772597  s :     3.772597
      pz      :     1.493298  p :     4.444665
      px      :     1.576810
      py      :     1.374558
      dz2     :     0.004131  d :     0.018244
      dxz     :     0.006234
      dyz     :     0.003625
      dx2y2   :     0.001875
      dxy     :     0.002379
  3 O s       :     3.678619  s :     3.678619
      pz      :     1.537002  p :     4.517887
      px      :     1.198396
      py      :     1.782489
      dz2     :     0.002520  d :     0.012240
      dxz     :     0.004476
      dyz     :     0.001125
      dx2y2   :     0.002391
      dxy     :     0.001729
  4 N s       :     3.487671  s :     3.487671
      pz      :     1.252757  p :     3.771205
      px      :     1.107189
      py      :     1.411259
      dz2     :     0.006858  d :     0.019024
      dxz     :     0.002241
      dyz     :     0.000540
      dx2y2   :     0.006388
      dxy     :     0.002996
  5 H s       :     0.931165  s :     0.931165
      pz      :     0.007744  p :     0.021780
      px      :     0.004012
      py      :     0.010023
  6 H s       :     0.913882  s :     0.913882
      pz      :     0.005790  p :     0.021835
      px      :     0.003505
      py      :     0.012540
  7 H s       :     0.738528  s :     0.738528
      pz      :     0.026820  p :     0.070207
      px      :     0.025645
      py      :     0.017742
  8 H s       :     0.827581  s :     0.827581
      pz      :     0.013371  p :     0.044439
      px      :     0.010046
      py      :     0.021022
  9 H s       :     0.838428  s :     0.838428
      pz      :     0.022152  p :     0.044576
      px      :     0.009956
      py      :     0.012468


                     *******************************
                     * LOEWDIN POPULATION ANALYSIS *
                     *******************************

----------------------
LOEWDIN ATOMIC CHARGES
----------------------
   0 C :   -0.037885
   1 C :    0.087336
   2 O :   -0.172907
   3 O :   -0.046899
   4 N :   -0.133694
   5 H :    0.021680
   6 H :    0.042520
   7 H :    0.099362
   8 H :    0.071546
   9 H :    0.068942

-------------------------------
LOEWDIN REDUCED ORBITAL CHARGES
-------------------------------
  0 C s       :     2.855458  s :     2.855458
      pz      :     1.051244  p :     3.066912
      px      :     0.947658
      py      :     1.068010
      dz2     :     0.022396  d :     0.115515
      dxz     :     0.026693
      dyz     :     0.015529
      dx2y2   :     0.025811
      dxy     :     0.025088
  1 C s       :     2.863840  s :     2.863840
      pz      :     1.050681  p :     2.760644
      px      :     0.900811
      py      :     0.809152
      dz2     :     0.087555  d :     0.288180
      dxz     :     0.075410
      dyz     :     0.023840
      dx2y2   :     0.056280
      dxy     :     0.045095
  2 O s       :     3.562685  s :     3.562685
      pz      :     1.574681  p :     4.579698
      px      :     1.632596
      py      :     1.372422
      dz2     :     0.006953  d :     0.030524
      dxz     :     0.012799
      dyz     :     0.004434
      dx2y2   :     0.003331
      dxy     :     0.003007
  3 O s       :     3.411751  s :     3.411751
      pz      :     1.591290  p :     4.609954
      px      :     1.279296
      py      :     1.739368
      dz2     :     0.004445  d :     0.025194
      dxz     :     0.010680
      dyz     :     0.000716
      dx2y2   :     0.006308
      dxy     :     0.003046
  4 N s       :     3.164844  s :     3.164844
      pz      :     1.314309  p :     3.927317
      px      :     1.172893
      py      :     1.440114
      dz2     :     0.014549  d :     0.041533
      dxz     :     0.005530
      dyz     :     0.001259
      dx2y2   :     0.014012
      dxy     :     0.006184
  5 H s       :     0.910227  s :     0.910227
      pz      :     0.023778  p :     0.068094
      px      :     0.016136
      py      :     0.028180
  6 H s       :     0.892047  s :     0.892047
      pz      :     0.017317  p :     0.065434
      px      :     0.012977
      py      :     0.035140
  7 H s       :     0.721122  s :     0.721122
      pz      :     0.074454  p :     0.179516
      px      :     0.057735
      py      :     0.047327
  8 H s       :     0.813666  s :     0.813666
      pz      :     0.028587  p :     0.114789
      px      :     0.024908
      py      :     0.061294
  9 H s       :     0.816199  s :     0.816199
      pz      :     0.061633  p :     0.114859
      px      :     0.024404
      py      :     0.028822


                      *****************************
                      * MAYER POPULATION ANALYSIS *
                      *****************************

  NA   - Mulliken gross atomic population
  ZA   - Total nuclear charge
  QA   - Mulliken gross atomic charge
  VA   - Mayer's total valence
  BVA  - Mayer's bonded valence
  FA   - Mayer's free valence

  ATOM       NA         ZA         QA         VA         BVA        FA
  0 C      6.0127     6.0000    -0.0127     3.9046     3.9046    -0.0000
  1 C      5.8127     6.0000     0.1873     4.3158     4.3158     0.0000
  2 O      8.2355     8.0000    -0.2355     2.2455     2.2455     0.0000
  3 O      8.2087     8.0000    -0.2087     2.1992     2.1992    -0.0000
  4 N      7.2779     7.0000    -0.2779     3.0195     3.0195    -0.0000
  5 H      0.9529     1.0000     0.0471     0.9752     0.9752    -0.0000
  6 H      0.9357     1.0000     0.0643     0.9821     0.9821     0.0000
  7 H      0.8087     1.0000     0.1913     1.0043     1.0043    -0.0000
  8 H      0.8720     1.0000     0.1280     0.9938     0.9938     0.0000
  9 H      0.8830     1.0000     0.1170     0.9866     0.9866     0.0000

  Mayer bond orders larger than 0.1
B(  0-C ,  1-C ) :   0.9610 B(  0-C ,  4-N ) :   1.0851 B(  0-C ,  5-H ) :   0.9316 
B(  0-C ,  6-H ) :   0.9265 B(  1-C ,  2-O ) :   2.1144 B(  1-C ,  3-O ) :   1.1759 
B(  3-O ,  7-H ) :   0.9444 B(  4-N ,  8-H ) :   0.9547 B(  4-N ,  9-H ) :   0.9526 


-------
TIMINGS
-------

Total SCF time: 0 days 0 hours 0 min 8 sec 

Total time                  ....       8.788 sec
Sum of individual times     ....       8.746 sec  ( 99.5%)

Fock matrix formation       ....       8.258 sec  ( 94.0%)
  XC integration            ....       1.297 sec  ( 15.7% of F)
    Basis function eval.    ....       0.362 sec  ( 27.9% of XC)
    Density eval.           ....       0.301 sec  ( 23.2% of XC)
    XC-Functional eval.     ....       0.092 sec  (  7.1% of XC)
    XC-Potential eval.      ....       0.349 sec  ( 26.9% of XC)
Diagonalization             ....       0.008 sec  (  0.1%)
Density matrix formation    ....       0.002 sec  (  0.0%)
Population analysis         ....       0.004 sec  (  0.0%)
Initial guess               ....       0.140 sec  (  1.6%)
Orbital Transformation      ....       0.000 sec  (  0.0%)
Orbital Orthonormalization  ....       0.000 sec  (  0.0%)
DIIS solution               ....       0.006 sec  (  0.1%)
SOSCF solution              ....       0.004 sec  (  0.0%)
Grid generation             ....       0.324 sec  (  3.7%)

-------------------------   --------------------
FINAL SINGLE POINT ENERGY      -283.888653678459
-------------------------   --------------------

------------------------------------------------------------------------------
                         ORCA SCF GRADIENT CALCULATION
------------------------------------------------------------------------------

Gradient of the Kohn-Sham DFT energy:
Kohn-Sham wavefunction type      ... RKS
Hartree-Fock exchange scaling    ...    0.250
Number of operators              ...    1
Number of atoms                  ...   10
Basis set dimensions             ...   95
Integral neglect threshold       ... 2.5e-011
Integral primitive cutoff        ... 2.5e-012

Nuclear repulsion gradient       ... done
One Electron Gradient            
  ECP gradient                   ... done
Pre-screening matrix             ... done
Starting the two electron gradient:
Two electron gradient done
Exchange-correlation gradient    ... done

------------------
CARTESIAN GRADIENT
------------------

   1   C   :   -0.013265800    0.004543180   -0.012548833
   2   C   :   -0.025345905    0.002153967    0.035466939
   3   O   :    0.030792627   -0.001222712   -0.029779275
   4   O   :   -0.001138525    0.001124338    0.006228260
   5   N   :   -0.003034931    0.007728839   -0.010215042
   6   H   :    0.012203992   -0.003811686    0.001572852
   7   H   :    0.000633767    0.005281154    0.000393906
   8   H   :   -0.014173815   -0.001027881   -0.006524278
   9   H   :    0.006953775   -0.020013345   -0.006501933
  10   H   :    0.006374815    0.005244146    0.021907405

Difference to translation invariance:
           :    0.0000000000    0.0000000000    0.0000000000

Norm of the cartesian gradient     ...    0.0760810695
RMS gradient                       ...    0.0138904393
MAX gradient                       ...    0.0354669390

-------
TIMINGS
-------

Total SCF gradient time            ...        3.068 sec

One electron gradient       ....       0.017 sec  (  0.6%)
Prescreening matrices       ....       0.033 sec  (  1.1%)
Two electron gradient       ....       1.628 sec  ( 53.1%)
XC gradient                 ....       1.283 sec  ( 41.8%)
------------------------------------------------------------------------------
                         ORCA GEOMETRY RELAXATION STEP
------------------------------------------------------------------------------

Reading the OPT-File                    .... done
Getting information on internals        .... done
Copying old internal coords+grads       .... done
Making the new internal coordinates     .... (new redundants).... done
Validating the new internal coordinates .... (new redundants).... done
Calculating the B-matrix                .... done
Calculating the G,G- and P matrices     .... done
Transforming gradient to internals      .... done
Projecting the internal gradient        .... done
Number of atoms                         ....  10
Number of internal coordinates          ....  36
Current Energy                          ....  -283.888653678 Eh
Current gradient norm                   ....     0.076081070 Eh/bohr
Maximum allowed component of the step   ....  0.300
Current trust radius                    ....  0.300
Evaluating the initial hessian          ....  (Almloef) done
Projecting the Hessian                  .... done
Forming the augmented Hessian           .... done
Diagonalizing the augmented Hessian     .... done
Last element of RFO vector              ....  0.978328605
Lowest eigenvalues of augmented Hessian:
 -0.010493380  0.012313638  0.016018425  0.016971024  0.031198932
Length of the computed step             ....  0.211644946
The final length of the internal step   ....  0.211644946
Converting the step to cartesian space:
 Initial RMS(Int)=    0.0352741576
Transforming coordinates:
 Iter   0:  RMS(Cart)=    0.0646290039 RMS(Int)=    1.4754748969
 Iter   1:  RMS(Cart)=    0.0021777981 RMS(Int)=    0.0019934922
 Iter   2:  RMS(Cart)=    0.0001765999 RMS(Int)=    0.0001056895
 Iter   3:  RMS(Cart)=    0.0000146153 RMS(Int)=    0.0000149913
 Iter   4:  RMS(Cart)=    0.0000015244 RMS(Int)=    0.0000009931
 Iter   5:  RMS(Cart)=    0.0000001350 RMS(Int)=    0.0000001335
 Iter   6:  RMS(Cart)=    0.0000000140 RMS(Int)=    0.0000000100
done
Storing new coordinates                 .... done

                                .--------------------.
          ----------------------|Geometry convergence|-------------------------
          Item                value                   Tolerance       Converged
          ---------------------------------------------------------------------
          RMS gradient        0.0116963252            0.0001000000      NO
          MAX gradient        0.0424417566            0.0003000000      NO
          RMS step            0.0352741576            0.0020000000      NO
          MAX step            0.0836508434            0.0040000000      NO
          ........................................................
          Max(Bonds)      0.0316      Max(Angles)    4.12
          Max(Dihed)        4.79      Max(Improp)    0.00
          ---------------------------------------------------------------------

The optimization has not yet converged - more geometry cycles are needed


    ---------------------------------------------------------------------------
                         Redundant Internal Coordinates
                            (Angstroem and degrees)

        Definition                    Value    dE/dq     Step     New-Value
    ----------------------------------------------------------------------------
     1. B(C   1,C   0)                1.5079 -0.001684  0.0021    1.5101   
     2. B(O   2,C   1)                1.2217  0.042442 -0.0214    1.2003   
     3. B(O   3,C   1)                1.3493  0.015137 -0.0121    1.3372   
     4. B(N   4,C   0)                1.4607  0.010306 -0.0123    1.4483   
     5. B(H   5,C   0)                1.1117 -0.000392  0.0006    1.1123   
     6. B(H   6,C   0)                1.1108  0.004525 -0.0070    1.1039   
     7. B(H   7,O   3)                0.9676  0.004371 -0.0045    0.9631   
     8. B(H   8,N   4)                1.0450  0.022155 -0.0300    1.0150   
     9. B(H   9,N   4)                1.0459  0.023303 -0.0316    1.0143   
    10. A(H   5,C   0,H   6)          108.68  0.004006   -1.40    107.28   
    11. A(N   4,C   0,H   6)          109.03  0.000616   -0.27    108.76   
    12. A(C   1,C   0,N   4)          111.51  0.004258   -0.38    111.13   
    13. A(C   1,C   0,H   5)          109.38  0.006014   -1.08    108.30   
    14. A(N   4,C   0,H   5)          109.50 -0.013043    3.41    112.91   
    15. A(C   1,C   0,H   6)          108.70 -0.001736   -0.35    108.35   
    16. A(O   2,C   1,O   3)          119.15 -0.003067    0.43    119.59   
    17. A(C   0,C   1,O   3)          120.10  0.018558   -2.49    117.61   
    18. A(C   0,C   1,O   2)          120.75 -0.015491    2.05    122.80   
    19. A(C   1,O   3,H   7)          121.55  0.027452   -4.12    117.43   
    20. A(H   8,N   4,H   9)          107.72  0.001165   -0.32    107.40   
    21. A(C   0,N   4,H   9)          108.69 -0.000805    0.10    108.79   
    22. A(C   0,N   4,H   8)          109.40 -0.000965    0.12    109.52   
    23. D(O   2,C   1,C   0,H   5)   -121.05  0.004144    1.48   -119.56   
    24. D(O   3,C   1,C   0,H   5)     58.98  0.005516   -1.40     57.58   
    25. D(O   2,C   1,C   0,H   6)    120.43 -0.003141    4.00    124.43   
    26. D(O   3,C   1,C   0,N   4)   -179.76 -0.004044    1.91   -177.85   
    27. D(O   3,C   1,C   0,H   6)    -59.54 -0.001768    1.12    -58.42   
    28. D(O   2,C   1,C   0,N   4)      0.21 -0.005417    4.79      5.00   
    29. D(H   7,O   3,C   1,C   0)      0.04 -0.000749    1.52      1.55   
    30. D(H   7,O   3,C   1,O   2)   -179.93  0.000605   -1.32   -181.25   
    31. D(H   9,N   4,C   0,H   6)     59.54 -0.002141    2.25     61.79   
    32. D(H   9,N   4,C   0,H   5)    -59.24  0.000304    2.10    -57.14   
    33. D(H   9,N   4,C   0,C   1)    179.57 -0.001232    1.41    180.97   
    34. D(H   8,N   4,C   0,H   6)    176.91 -0.001746    2.00    178.90   
    35. D(H   8,N   4,C   0,H   5)     58.12  0.000699    1.85     59.97   
    36. D(H   8,N   4,C   0,C   1)    -63.07 -0.000837    1.15    -61.92   
    ----------------------------------------------------------------------------

         *************************************************************
         *                GEOMETRY OPTIMIZATION CYCLE   2            *
         *************************************************************
---------------------------------
CARTESIAN COORDINATES (ANGSTROEM)
---------------------------------
  C      0.989073   -0.037467   -0.139799
  C      0.487981   -0.212181   -1.553571
  O      1.222814   -0.383845   -2.486944
  O     -0.835498   -0.229238   -1.743937
  N      2.436083    0.010808   -0.100983
  H      0.566274   -0.855728    0.483863
  H      0.591492    0.913802    0.254543
  H     -1.396566   -0.106332   -0.970884
  H      2.814039   -0.866280   -0.444593
  H      2.733777    0.112311    0.863285

----------------------------
CARTESIAN COORDINATES (A.U.)
----------------------------
  NO LB      ZA    FRAG     MASS         X           Y           Z
   0 C     6.0000    0    12.011    1.869076   -0.070803   -0.264182
   1 C     6.0000    0    12.011    0.922150   -0.400963   -2.935825
   2 O     8.0000    0    15.999    2.310784   -0.725362   -4.699643
   3 O     8.0000    0    15.999   -1.578862   -0.433197   -3.295563
   4 N     7.0000    0    14.007    4.603530    0.020425   -0.190830
   5 H     1.0000    0     1.008    1.070102   -1.617091    0.914369
   6 H     1.0000    0     1.008    1.117758    1.726836    0.481017
   7 H     1.0000    0     1.008   -2.639127   -0.200939   -1.834706
   8 H     1.0000    0     1.008    5.317763   -1.637033   -0.840159
   9 H     1.0000    0     1.008    5.166090    0.212237    1.631372

--------------------------------
INTERNAL COORDINATES (ANGSTROEM)
--------------------------------
 C      0   0   0     0.000000000000     0.00000000     0.00000000
 C      1   0   0     1.510089589593     0.00000000     0.00000000
 O      2   1   0     1.200263771964   122.78119881     0.00000000
 O      2   1   3     1.337208021857   117.59239280   177.13514415
 N      1   2   3     1.448335865221   111.12925293     5.00556175
 H      1   2   3     1.112323378081   108.28127627   240.45350170
 H      1   2   3     1.103852485847   108.33931250   124.42967108
 H      4   2   1     0.963074893975   117.43221690     1.53464586
 H      5   1   2     1.014989198242   109.52131359   298.07936106
 H      5   1   2     1.014266573554   108.78714271   180.96748131

---------------------------
INTERNAL COORDINATES (A.U.)
---------------------------
 C      0   0   0     0.000000000000     0.00000000     0.00000000
 C      1   0   0     2.853655762016     0.00000000     0.00000000
 O      2   1   0     2.268169817479   122.78119881     0.00000000
 O      2   1   3     2.526956945391   117.59239280   177.13514415
 N      1   2   3     2.736958135204   111.12925293     5.00556175
 H      1   2   3     2.101986556931   108.28127627   240.45350170
 H      1   2   3     2.085978890498   108.33931250   124.42967108
 H      4   2   1     1.819947796067   117.43221690     1.53464586
 H      5   1   2     1.918051613565   109.52131359   298.07936106
 H      5   1   2     1.916686050807   108.78714271   180.96748131


Diagonalization of the overlap matrix:
Smallest eigenvalue                        ... 2.251e-003
Time for diagonalization                   ...    0.000 sec
Threshold for overlap eigenvalues          ... 1.000e-008
Number of eigenvalues below threshold      ... 0
Time for construction of square roots      ...    0.000 sec
Total time needed                          ...    0.000 sec

-------------------
DFT GRID GENERATION
-------------------

General Integration Accuracy     IntAcc      ...  4.340
Radial Grid Type                 RadialGrid  ... Gauss-Chebyshev
Angular Grid (max. acc.)         AngularGrid ... Lebedev-110
Angular grid pruning method      GridPruning ... 3 (G Style)
Weight generation scheme         WeightScheme... Becke
Basis function cutoff            BFCut       ...   1.0000e-011
Integration weight cutoff        WCut        ...   1.0000e-014
Grids for H and He will be reduced by one unit

# of grid points (after initial pruning)     ...  12416 (   0.0 sec)
# of grid points (after weights+screening)   ...  11821 (   0.0 sec)
nearest neighbour list constructed           ...    0.0 sec
Grid point re-assignment to atoms done       ...    0.0 sec
Grid point division into batches done        ...    0.0 sec
Reduced shell lists constructed in    0.0 sec

Total number of grid points                  ...    11821
Total number of batches                      ...      189
Average number of points per batch           ...       62
Average number of grid points per atom       ...     1182
Average number of shells per batch           ...    35.69 (79.32%)
Average number of basis functions per batch  ...    75.21 (79.17%)
Average number of large shells per batch     ...    29.96 (83.94%)
Average number of large basis fcns per batch ...    61.71 (82.05%)
Maximum spatial batch extension              ...  18.67, 25.60, 19.15 au
Average spatial batch extension              ...   3.86,  4.35,  3.94 au

Time for grid setup =    0.054 sec

--------------
SCF ITERATIONS
--------------
ITER       Energy         Delta-E        Max-DP      RMS-DP      [F,P]     Damp
               ***  Starting incremental Fock matrix formation  ***
  0   -283.8903698359   0.000000000000 0.00729800  0.00039081  0.0238934 0.7000
                      *** Initiating the SOSCF procedure ***
                      *** Re-Reading the Fockian *** 
                      *** Removing any level shift *** 
ITER      Energy       Delta-E        Grad      Rot      Max-DP    RMS-DP
  1   -283.89162333  -0.0012534904  0.001866  0.001866  0.021069  0.001137
               *** Restarting incremental Fock matrix formation ***
  2   -283.89484093  -0.0032176049  0.001777  0.003208  0.006551  0.000340
  3   -283.89488204  -0.0000411078  0.002733  0.003646  0.004907  0.000188
  4   -283.89494993  -0.0000678929  0.001127  0.001684  0.002318  0.000100
  5   -283.89495239  -0.0000024560  0.000706  0.000507  0.001407  0.000050
  6   -283.89496045  -0.0000080647  0.000122  0.000127  0.000426  0.000018
  7   -283.89496067  -0.0000002205  0.000068  0.000053  0.000241  0.000007
  8   -283.89496080  -0.0000001235  0.000020  0.000022  0.000030  0.000002
  9   -283.89496080  -0.0000000029  0.000010  0.000008  0.000020  0.000001
 10   -283.89496080  -0.0000000019  0.000005  0.000004  0.000012  0.000001
 11   -283.89496080  -0.0000000001  0.000003  0.000002  0.000006  0.000000
                 **** Energy Check signals convergence ****
              ***Rediagonalizing the Fockian in SOSCF/NRSCF***

               *****************************************************
               *                     SUCCESS                       *
               *           SCF CONVERGED AFTER  12 CYCLES          *
               *****************************************************

Setting up the final grid:

General Integration Accuracy     IntAcc      ...  4.670
Radial Grid Type                 RadialGrid  ... Gauss-Chebyshev
Angular Grid (max. acc.)         AngularGrid ... Lebedev-302
Angular grid pruning method      GridPruning ... 3 (G Style)
Weight generation scheme         WeightScheme... Becke
Basis function cutoff            BFCut       ...   1.0000e-011
Integration weight cutoff        WCut        ...   1.0000e-014
Grids for H and He will be reduced by one unit

# of grid points (after initial pruning)     ...  48030 (   0.0 sec)
# of grid points (after weights+screening)   ...  45312 (   0.0 sec)
nearest neighbour list constructed           ...    0.0 sec
Grid point re-assignment to atoms done       ...    0.0 sec
Grid point division into batches done        ...    0.1 sec
Reduced shell lists constructed in    0.2 sec

Total number of grid points                  ...    45312
Total number of batches                      ...      713
Average number of points per batch           ...       63
Average number of grid points per atom       ...     4531
Average number of shells per batch           ...    32.77 (72.83%)
Average number of basis functions per batch  ...    68.70 (72.31%)
Average number of large shells per batch     ...    27.01 (82.41%)
Average number of large basis fcns per batch ...    55.25 (80.42%)
Maximum spatial batch extension              ...  16.05, 20.64, 17.89 au
Average spatial batch extension              ...   2.60,  2.77,  2.70 au

Final grid set up in    0.3 sec
Final integration                            ... done (   0.2 sec)
Change in XC energy                          ...    -0.000580680
Integrated number of electrons               ...    39.999964319
Previous integrated no of electrons          ...    39.996046586
Total Energy       :         -283.89554148 Eh           -7725.19042 eV
  Last Energy change         ...  -2.1447e-010  Tolerance :  1.0000e-008
  Last MAX-Density change    ...   2.3665e-007  Tolerance :  1.0000e-007
             **** THE GBW FILE WAS UPDATED (glycine.gbw) ****
             **** DENSITY FILE WAS UPDATED (glycine.scfp.tmp) ****
             **** ENERGY FILE WAS UPDATED (glycine.en.tmp) ****
Total SCF time: 0 days 0 hours 0 min 7 sec 

-------------------------   --------------------
FINAL SINGLE POINT ENERGY      -283.895541481520
-------------------------   --------------------

------------------------------------------------------------------------------
                         ORCA SCF GRADIENT CALCULATION
------------------------------------------------------------------------------

Gradient of the Kohn-Sham DFT energy:
Kohn-Sham wavefunction type      ... RKS
Hartree-Fock exchange scaling    ...    0.250
Number of operators              ...    1
Number of atoms                  ...   10
Basis set dimensions             ...   95
Integral neglect threshold       ... 2.5e-011
Integral primitive cutoff        ... 2.5e-012

Nuclear repulsion gradient       ... done
One Electron Gradient            
  ECP gradient                   ... done
Pre-screening matrix             ... done
Starting the two electron gradient:
Two electron gradient done
Exchange-correlation gradient    ... done

------------------
CARTESIAN GRADIENT
------------------

   1   C   :   -0.009833036   -0.000139582   -0.005732138
   2   C   :   -0.010323573    0.005495177    0.008320988
   3   O   :    0.004941977   -0.001113861   -0.005366977
   4   O   :    0.009086196   -0.000005859    0.007110158
   5   N   :    0.008627751   -0.003627477    0.000424804
   6   H   :    0.006568108   -0.001218179    0.001245664
   7   H   :    0.002237093    0.000693974   -0.000911784
   8   H   :   -0.007386488   -0.001311395   -0.005998634
   9   H   :   -0.001725562    0.001096415    0.002468328
  10   H   :   -0.002192467    0.000130786   -0.001560410

Difference to translation invariance:
           :   -0.0000000000   -0.0000000000    0.0000000000

Norm of the cartesian gradient     ...    0.0278069095
RMS gradient                       ...    0.0050768239
MAX gradient                       ...    0.0103235727

-------
TIMINGS
-------

Total SCF gradient time            ...        3.130 sec

One electron gradient       ....       0.034 sec  (  1.1%)
Prescreening matrices       ....       0.032 sec  (  1.0%)
Two electron gradient       ....       1.772 sec  ( 56.6%)
XC gradient                 ....       1.209 sec  ( 38.6%)
------------------------------------------------------------------------------
                         ORCA GEOMETRY RELAXATION STEP
------------------------------------------------------------------------------

Reading the OPT-File                    .... done
Getting information on internals        .... done
Copying old internal coords+grads       .... done
Making the new internal coordinates     .... (new redundants).... done
Validating the new internal coordinates .... (new redundants).... done
Calculating the B-matrix                .... done
Calculating the G,G- and P matrices     .... done
Transforming gradient to internals      .... done
Projecting the internal gradient        .... done
Number of atoms                         ....  10
Number of internal coordinates          ....  36
Current Energy                          ....  -283.895541482 Eh
Current gradient norm                   ....     0.027806909 Eh/bohr
Maximum allowed component of the step   ....  0.300
Current trust radius                    ....  0.300
Updating the Hessian (BFGS)             .... done
Forming the augmented Hessian           .... done
Diagonalizing the augmented Hessian     .... done
Last element of RFO vector              ....  0.972039668
Lowest eigenvalues of augmented Hessian:
 -0.003875082  0.012263410  0.015888864  0.017596627  0.031201789
Length of the computed step             ....  0.241571113
The final length of the internal step   ....  0.241571113
Converting the step to cartesian space:
 Initial RMS(Int)=    0.0402618522
Transforming coordinates:
 Iter   0:  RMS(Cart)=    0.0726787710 RMS(Int)=    1.4688313871
 Iter   1:  RMS(Cart)=    0.0032520747 RMS(Int)=    0.0028678835
 Iter   2:  RMS(Cart)=    0.0003554204 RMS(Int)=    0.0002518160
 Iter   3:  RMS(Cart)=    0.0000398466 RMS(Int)=    0.0000370944
 Iter   4:  RMS(Cart)=    0.0000046614 RMS(Int)=    0.0000038328
 Iter   5:  RMS(Cart)=    0.0000005803 RMS(Int)=    0.0000004922
 Iter   6:  RMS(Cart)=    0.0000000665 RMS(Int)=    0.0000000626
done
Storing new coordinates                 .... done

                                .--------------------.
          ----------------------|Geometry convergence|-------------------------
          Item                value                   Tolerance       Converged
          ---------------------------------------------------------------------
          Energy change      -0.0068878031            0.0000050000      NO
          RMS gradient        0.0044129746            0.0001000000      NO
          MAX gradient        0.0174165960            0.0003000000      NO
          RMS step            0.0402618522            0.0020000000      NO
          MAX step            0.0996745562            0.0040000000      NO
          ........................................................
          Max(Bonds)      0.0108      Max(Angles)    4.68
          Max(Dihed)        5.71      Max(Improp)    0.00
          ---------------------------------------------------------------------

The optimization has not yet converged - more geometry cycles are needed


    ---------------------------------------------------------------------------
                         Redundant Internal Coordinates
                            (Angstroem and degrees)

        Definition                    Value    dE/dq     Step     New-Value
    ----------------------------------------------------------------------------
     1. B(C   1,C   0)                1.5101 -0.002935  0.0058    1.5159   
     2. B(O   2,C   1)                1.2003  0.007361 -0.0104    1.1898   
     3. B(O   3,C   1)                1.3372 -0.001826 -0.0008    1.3364   
     4. B(N   4,C   0)                1.4483  0.004652 -0.0108    1.4375   
     5. B(H   5,C   0)                1.1123 -0.000911  0.0021    1.1145   
     6. B(H   6,C   0)                1.1039 -0.000527 -0.0005    1.1034   
     7. B(H   7,O   3)                0.9631 -0.000681 -0.0001    0.9630   
     8. B(H   8,N   4)                1.0150 -0.002412 -0.0024    1.0126   
     9. B(H   9,N   4)                1.0143 -0.002116 -0.0033    1.0109   
    10. A(H   5,C   0,H   6)          107.26  0.002155   -1.44    105.83   
    11. A(N   4,C   0,H   6)          108.76 -0.000141    0.13    108.89   
    12. A(C   1,C   0,N   4)          111.13  0.001413   -0.17    110.96   
    13. A(C   1,C   0,H   5)          108.28  0.004272   -1.60    106.68   
    14. A(N   4,C   0,H   5)          112.91 -0.006661    3.15    116.06   
    15. A(C   1,C   0,H   6)          108.34 -0.000851   -0.17    108.17   
    16. A(O   2,C   1,O   3)          119.57 -0.004839    0.97    120.53   
    17. A(C   0,C   1,O   3)          117.59  0.010866   -2.66    114.94   
    18. A(C   0,C   1,O   2)          122.78 -0.006059    1.64    124.43   
    19. A(C   1,O   3,H   7)          117.43  0.017417   -4.68    112.75   
    20. A(H   8,N   4,H   9)          107.40  0.000777    0.26    107.66   
    21. A(C   0,N   4,H   9)          108.79 -0.002757    0.91    109.70   
    22. A(C   0,N   4,H   8)          109.52 -0.001320    0.57    110.09   
    23. D(O   2,C   1,C   0,H   5)   -119.55  0.002716   -0.35   -119.90   
    24. D(O   3,C   1,C   0,H   5)     57.59  0.001874    2.94     60.53   
    25. D(O   2,C   1,C   0,H   6)    124.43 -0.001640    2.37    126.80   
    26. D(O   3,C   1,C   0,N   4)   -177.86 -0.002618    5.71   -172.15   
    27. D(O   3,C   1,C   0,H   6)    -58.44 -0.002482    5.66    -52.77   
    28. D(O   2,C   1,C   0,N   4)      5.01 -0.001776    2.41      7.42   
    29. D(H   7,O   3,C   1,C   0)      1.53  0.000090   -0.84      0.69   
    30. D(H   7,O   3,C   1,O   2)    178.77 -0.000779    2.44    181.20   
    31. D(H   9,N   4,C   0,H   6)     61.79 -0.000414    2.34     64.14   
    32. D(H   9,N   4,C   0,H   5)    -57.14  0.001124    2.14    -55.00   
    33. D(H   9,N   4,C   0,C   1)   -179.03 -0.000696    2.11   -176.92   
    34. D(H   8,N   4,C   0,H   6)    178.90 -0.001803    3.49    182.40   
    35. D(H   8,N   4,C   0,H   5)     59.98 -0.000265    3.29     63.27   
    36. D(H   8,N   4,C   0,C   1)    -61.92 -0.002085    3.26    -58.66   
    ----------------------------------------------------------------------------

         *************************************************************
         *                GEOMETRY OPTIMIZATION CYCLE   3            *
         *************************************************************
---------------------------------
CARTESIAN COORDINATES (ANGSTROEM)
---------------------------------
  C      0.979733   -0.065178   -0.142271
  C      0.501288   -0.258417   -1.567655
  O      1.218042   -0.443514   -2.499170
  O     -0.823689   -0.198280   -1.731034
  N      2.412723    0.036242   -0.090152
  H      0.524509   -0.884091    0.461214
  H      0.541160    0.870887    0.243608
  H     -1.293002   -0.026889   -0.907786
  H      2.834738   -0.798763   -0.477508
  H      2.713970    0.113853    0.871735

----------------------------
CARTESIAN COORDINATES (A.U.)
----------------------------
  NO LB      ZA    FRAG     MASS         X           Y           Z
   0 C     6.0000    0    12.011    1.851426   -0.123169   -0.268854
   1 C     6.0000    0    12.011    0.947297   -0.488338   -2.962438
   2 O     8.0000    0    15.999    2.301765   -0.838120   -4.722747
   3 O     8.0000    0    15.999   -1.556547   -0.374694   -3.271180
   4 N     7.0000    0    14.007    4.559386    0.068487   -0.170363
   5 H     1.0000    0     1.008    0.991178   -1.670690    0.871567
   6 H     1.0000    0     1.008    1.022644    1.645739    0.460353
   7 H     1.0000    0     1.008   -2.443420   -0.050813   -1.715467
   8 H     1.0000    0     1.008    5.356878   -1.509443   -0.902359
   9 H     1.0000    0     1.008    5.128659    0.215151    1.647341

--------------------------------
INTERNAL COORDINATES (ANGSTROEM)
--------------------------------
 C      0   0   0     0.000000000000     0.00000000     0.00000000
 C      1   0   0     1.515905166020     0.00000000     0.00000000
 O      2   1   0     1.189839526810   124.46105491     0.00000000
 O      2   1   3     1.336365438154   114.97017700   180.45373558
 N      1   2   3     1.437520191740   110.95944191     7.39958352
 H      1   2   3     1.114468947241   106.65316578   240.12031817
 H      1   2   3     1.103389497874   108.15153366   126.76398372
 H      4   2   1     0.962999089475   112.74850044     0.72993172
 H      5   1   2     1.012607203393   110.08413778   301.33547948
 H      5   1   2     1.010940395606   109.69182312   183.06623103

---------------------------
INTERNAL COORDINATES (A.U.)
---------------------------
 C      0   0   0     0.000000000000     0.00000000     0.00000000
 C      1   0   0     2.864645608773     0.00000000     0.00000000
 O      2   1   0     2.248470848986   124.46105491     0.00000000
 O      2   1   3     2.525364692948   114.97017700   180.45373558
 N      1   2   3     2.716519474370   110.95944191     7.39958352
 H      1   2   3     2.106041095045   106.65316578   240.12031817
 H      1   2   3     2.085103970026   108.15153366   126.76398372
 H      4   2   1     1.819804546324   112.74850044     0.72993172
 H      5   1   2     1.913550295648   110.08413778   301.33547948
 H      5   1   2     1.910400485413   109.69182312   183.06623103


Diagonalization of the overlap matrix:
Smallest eigenvalue                        ... 2.333e-003
Time for diagonalization                   ...    0.001 sec
Threshold for overlap eigenvalues          ... 1.000e-008
Number of eigenvalues below threshold      ... 0
Time for construction of square roots      ...    0.003 sec
Total time needed                          ...    0.004 sec

-------------------
DFT GRID GENERATION
-------------------

General Integration Accuracy     IntAcc      ...  4.340
Radial Grid Type                 RadialGrid  ... Gauss-Chebyshev
Angular Grid (max. acc.)         AngularGrid ... Lebedev-110
Angular grid pruning method      GridPruning ... 3 (G Style)
Weight generation scheme         WeightScheme... Becke
Basis function cutoff            BFCut       ...   1.0000e-011
Integration weight cutoff        WCut        ...   1.0000e-014
Grids for H and He will be reduced by one unit

# of grid points (after initial pruning)     ...  12416 (   0.0 sec)
# of grid points (after weights+screening)   ...  11825 (   0.0 sec)
nearest neighbour list constructed           ...    0.0 sec
Grid point re-assignment to atoms done       ...    0.0 sec
Grid point division into batches done        ...    0.0 sec
Reduced shell lists constructed in    0.0 sec

Total number of grid points                  ...    11825
Total number of batches                      ...      189
Average number of points per batch           ...       62
Average number of grid points per atom       ...     1183
Average number of shells per batch           ...    35.73 (79.40%)
Average number of basis functions per batch  ...    75.53 (79.51%)
Average number of large shells per batch     ...    29.97 (83.89%)
Average number of large basis fcns per batch ...    61.90 (81.95%)
Maximum spatial batch extension              ...  17.83, 25.97, 19.20 au
Average spatial batch extension              ...   3.84,  4.28,  3.91 au

Time for grid setup =    0.056 sec

--------------
SCF ITERATIONS
--------------
ITER       Energy         Delta-E        Max-DP      RMS-DP      [F,P]     Damp
               ***  Starting incremental Fock matrix formation  ***
  0   -283.8920670101   0.000000000000 0.00949101  0.00038432  0.0277581 0.7000
                      *** Initiating the SOSCF procedure ***
                      *** Re-Reading the Fockian *** 
                      *** Removing any level shift *** 
ITER      Energy       Delta-E        Grad      Rot      Max-DP    RMS-DP
  1   -283.89348134  -0.0014143303  0.001934  0.001934  0.027669  0.001158
               *** Restarting incremental Fock matrix formation ***
  2   -283.89725536  -0.0037740186  0.001228  0.003440  0.005557  0.000314
  3   -283.89731652  -0.0000611632  0.003060  0.004133  0.005195  0.000213
  4   -283.89735949  -0.0000429667  0.001217  0.001372  0.001459  0.000110
  5   -283.89737533  -0.0000158429  0.000222  0.000166  0.000684  0.000024
  6   -283.89737564  -0.0000003103  0.000179  0.000092  0.000346  0.000013
  7   -283.89737609  -0.0000004479  0.000020  0.000020  0.000058  0.000004
  8   -283.89737610  -0.0000000097  0.000013  0.000009  0.000034  0.000001
  9   -283.89737610  -0.0000000052  0.000003  0.000004  0.000013  0.000000
                  ***Gradient check signals convergence***
              ***Rediagonalizing the Fockian in SOSCF/NRSCF***

               *****************************************************
               *                     SUCCESS                       *
               *           SCF CONVERGED AFTER  10 CYCLES          *
               *****************************************************

Setting up the final grid:

General Integration Accuracy     IntAcc      ...  4.670
Radial Grid Type                 RadialGrid  ... Gauss-Chebyshev
Angular Grid (max. acc.)         AngularGrid ... Lebedev-302
Angular grid pruning method      GridPruning ... 3 (G Style)
Weight generation scheme         WeightScheme... Becke
Basis function cutoff            BFCut       ...   1.0000e-011
Integration weight cutoff        WCut        ...   1.0000e-014
Grids for H and He will be reduced by one unit

# of grid points (after initial pruning)     ...  48030 (   0.0 sec)
# of grid points (after weights+screening)   ...  45266 (   0.0 sec)
nearest neighbour list constructed           ...    0.0 sec
Grid point re-assignment to atoms done       ...    0.0 sec
Grid point division into batches done        ...    0.1 sec
Reduced shell lists constructed in    0.2 sec

Total number of grid points                  ...    45266
Total number of batches                      ...      712
Average number of points per batch           ...       63
Average number of grid points per atom       ...     4527
Average number of shells per batch           ...    32.92 (73.15%)
Average number of basis functions per batch  ...    69.04 (72.67%)
Average number of large shells per batch     ...    27.04 (82.15%)
Average number of large basis fcns per batch ...    55.32 (80.12%)
Maximum spatial batch extension              ...  17.58, 20.64, 16.92 au
Average spatial batch extension              ...   2.61,  2.76,  2.72 au

Final grid set up in    0.3 sec
Final integration                            ... done (   0.2 sec)
Change in XC energy                          ...    -0.000352759
Integrated number of electrons               ...    39.999981661
Previous integrated no of electrons          ...    39.998301538
Total Energy       :         -283.89772886 Eh           -7725.24995 eV
  Last Energy change         ...  -3.5595e-010  Tolerance :  1.0000e-008
  Last MAX-Density change    ...   4.5265e-006  Tolerance :  1.0000e-007
             **** THE GBW FILE WAS UPDATED (glycine.gbw) ****
             **** DENSITY FILE WAS UPDATED (glycine.scfp.tmp) ****
             **** ENERGY FILE WAS UPDATED (glycine.en.tmp) ****
Total SCF time: 0 days 0 hours 0 min 6 sec 

-------------------------   --------------------
FINAL SINGLE POINT ENERGY      -283.897728864553
-------------------------   --------------------

------------------------------------------------------------------------------
                         ORCA SCF GRADIENT CALCULATION
------------------------------------------------------------------------------

Gradient of the Kohn-Sham DFT energy:
Kohn-Sham wavefunction type      ... RKS
Hartree-Fock exchange scaling    ...    0.250
Number of operators              ...    1
Number of atoms                  ...   10
Basis set dimensions             ...   95
Integral neglect threshold       ... 2.5e-011
Integral primitive cutoff        ... 2.5e-012

Nuclear repulsion gradient       ... done
One Electron Gradient            
  ECP gradient                   ... done
Pre-screening matrix             ... done
Starting the two electron gradient:
Two electron gradient done
Exchange-correlation gradient    ... done

------------------
CARTESIAN GRADIENT
------------------

   1   C   :   -0.004516928    0.000211206   -0.000653230
   2   C   :    0.000265304   -0.006887714   -0.006024281
   3   O   :   -0.006829331    0.004597628    0.005949334
   4   O   :    0.009770990    0.001606498    0.004332614
   5   N   :    0.005696855   -0.001991690   -0.000148136
   6   H   :    0.000868772    0.000644631   -0.000222424
   7   H   :    0.001890834   -0.000688649    0.000213383
   8   H   :   -0.001946648   -0.000189311   -0.002585407
   9   H   :   -0.002311228    0.002976759    0.003267493
  10   H   :   -0.002888621   -0.000279357   -0.004129346

Difference to translation invariance:
           :   -0.0000000000   -0.0000000000   -0.0000000000

Norm of the cartesian gradient     ...    0.0206711016
RMS gradient                       ...    0.0037740095
MAX gradient                       ...    0.0097709901

-------
TIMINGS
-------

Total SCF gradient time            ...        3.146 sec

One electron gradient       ....       0.017 sec  (  0.5%)
Prescreening matrices       ....       0.042 sec  (  1.3%)
Two electron gradient       ....       1.668 sec  ( 53.0%)
XC gradient                 ....       1.329 sec  ( 42.2%)
------------------------------------------------------------------------------
                         ORCA GEOMETRY RELAXATION STEP
------------------------------------------------------------------------------

Reading the OPT-File                    .... done
Getting information on internals        .... done
Copying old internal coords+grads       .... done
Making the new internal coordinates     .... (new redundants).... done
Validating the new internal coordinates .... (new redundants).... done
Calculating the B-matrix                .... done
Calculating the G,G- and P matrices     .... done
Transforming gradient to internals      .... done
Projecting the internal gradient        .... done
Number of atoms                         ....  10
Number of internal coordinates          ....  36
Current Energy                          ....  -283.897728865 Eh
Current gradient norm                   ....     0.020671102 Eh/bohr
Maximum allowed component of the step   ....  0.300
Current trust radius                    ....  0.300
Updating the Hessian (BFGS)             .... done
Forming the augmented Hessian           .... done
Diagonalizing the augmented Hessian     .... done
Last element of RFO vector              ....  0.967050599
Lowest eigenvalues of augmented Hessian:
 -0.001578658  0.011395823  0.014835518  0.022201766  0.031389494
Length of the computed step             ....  0.263258454
The final length of the internal step   ....  0.263258454
Converting the step to cartesian space:
 Initial RMS(Int)=    0.0438764090
Transforming coordinates:
 Iter   0:  RMS(Cart)=    0.0478912946 RMS(Int)=    1.0371896036
[...]
     19       0.000000   0.000000   0.000000   0.000000   0.000000   0.000000
     20       0.000000   0.000000   0.000000   0.000000   0.000000   0.000000
     21       0.000000   0.000000   0.000000   0.000000   0.000000   0.000000
     22       0.000000   0.000000   0.000000   0.000000   0.000000   0.000000
     23       0.000000   0.000000   0.000000   0.000000   0.000000   0.000000
     24       0.000000   0.000000   0.000000   0.000000   0.000000   0.000000
     25       0.000000   0.000000   0.000000   0.000000   0.000000   0.000000
     26       0.000000   0.000000   0.000000   0.000000   0.000000   0.000000
     27       0.000000   0.000000   0.000000   0.000000   0.000000   0.000000
     28       0.000000   0.000000   0.000000   0.000000   0.000000   0.000000
     29       0.000000   0.000000   0.000000   0.000000   0.000000   0.000000
                  6          7          8          9         10         11    
      0       0.003305  -0.002455   0.052625  -0.062857   0.090308   0.009113
      1      -0.190951  -0.029311   0.006425  -0.005444   0.002701  -0.039736
      2       0.039598   0.011571  -0.123293  -0.005675   0.050692   0.092179
      3       0.002720  -0.006649   0.067889   0.034080  -0.068008  -0.024874
      4      -0.024691  -0.029405  -0.026933  -0.127217  -0.023512  -0.209968
      5       0.007118   0.008328  -0.129832   0.013483   0.035745   0.076430
      6      -0.016823  -0.002428  -0.127180   0.045360  -0.098913  -0.045948
      7      -0.077950  -0.052486  -0.102723   0.002869  -0.002254   0.092239
      8       0.014489   0.019205  -0.267798  -0.040627   0.006857  -0.076310
      9       0.025001   0.012372   0.006973   0.070309  -0.046351   0.023632
     10       0.129578   0.046128   0.016314   0.118029   0.035573   0.004693
     11      -0.022112  -0.018896   0.146870   0.067119  -0.171182  -0.053148
     12      -0.032104  -0.009099   0.019218  -0.089586   0.137497   0.020417
     13       0.135716   0.060325   0.095032  -0.000227   0.035058   0.016756
     14      -0.059153   0.028589   0.312176  -0.051450   0.083006   0.009741
     15       0.221474   0.098471  -0.032550  -0.110898   0.155612  -0.020621
     16      -0.416648  -0.078543  -0.000054   0.168552   0.024397   0.280798
     17      -0.115844  -0.005457  -0.193742   0.205640   0.123057   0.499392
     18      -0.145560  -0.096313  -0.058354  -0.064612   0.119779   0.055716
     19      -0.380130  -0.093608  -0.021434   0.113812   0.006926   0.157627
     20       0.278580   0.045618  -0.218028  -0.305853   0.063748  -0.314895
     21       0.051617   0.023007   0.218846   0.031304  -0.388631   0.065373
     22       0.174649   0.080986   0.129858  -0.731905  -0.800818   0.580091
     23      -0.027970  -0.027783   0.217745   0.429360   0.010123  -0.290629
     24       0.066779  -0.045510   0.329485  -0.096661   0.179270   0.037765
     25      -0.104368   0.624073   0.209726   0.027590   0.005955   0.045975
     26       0.158365  -0.375205   0.407370  -0.071998   0.124452   0.002218
     27       0.050216   0.097438  -0.252576  -0.007259   0.063264   0.120050
     28       0.590699  -0.570613  -0.022795   0.086956  -0.004482   0.139554
     29       0.093180  -0.276461   0.384238  -0.055723   0.103407   0.014234
                 12         13         14         15         16         17    
      0       0.068913   0.034057   0.036335   0.026633  -0.089154   0.124277
      1      -0.099404  -0.010444  -0.046143   0.222448   0.009781   0.019800
      2      -0.281596  -0.015299  -0.289968  -0.014592  -0.019893   0.012960
      3      -0.158960   0.006827   0.000574  -0.037741   0.016079   0.122856
      4      -0.183895   0.045710  -0.011598  -0.201396  -0.042255   0.010759
      5      -0.065913  -0.001094   0.230053   0.041334   0.032684   0.063720
      6       0.235810  -0.006722  -0.171510   0.016961   0.002933   0.053512
      7       0.068709  -0.010694   0.079570   0.035031   0.007641  -0.028133
      8       0.181290   0.019305   0.119169  -0.031589  -0.002436  -0.057183
      9      -0.279104  -0.014496   0.219178   0.004527  -0.005790  -0.091643
     10       0.097418  -0.005588  -0.021604   0.026895   0.012488   0.028598
     11       0.045701  -0.006153   0.006966  -0.010497   0.016238   0.037819
     12       0.101307  -0.052383  -0.045771  -0.032322   0.114791  -0.095323
     13       0.035366  -0.101170   0.002728  -0.078730   0.017223  -0.013461
     14       0.036351   0.016096  -0.035458   0.004879   0.040535   0.001243
     15       0.090836  -0.138254   0.002099   0.334501  -0.461351   0.226202
     16       0.076558   0.052105  -0.062563  -0.259743  -0.133989  -0.022287
     17      -0.039580  -0.028686  -0.341503  -0.441703  -0.456361   0.017383
     18       0.069809   0.077946  -0.084455  -0.167924  -0.271497  -0.191768
     19      -0.025411   0.060374  -0.102014  -0.153333  -0.044990  -0.077769
     20      -0.471563  -0.091075  -0.356415   0.644003  -0.198515  -0.225156
     21       0.042315  -0.048753  -0.269047   0.087421  -0.202056  -0.773584
     22       0.204099  -0.018147  -0.014156   0.039735   0.009180   0.023301
     23       0.190500  -0.019901  -0.292250   0.032006  -0.101129  -0.367274
     24       0.420534   0.355728   0.262891   0.043466  -0.255438  -0.215803
     25       0.067967   0.594172   0.052982   0.090458  -0.112330  -0.079905
     26       0.194631  -0.183054   0.105588  -0.044148  -0.093129  -0.020637
     27      -0.271108   0.330859  -0.471834  -0.057008   0.511306  -0.059993
     28      -0.075719   0.555563  -0.144172   0.143146   0.110260  -0.027792
     29       0.158895   0.085624   0.089202   0.091390  -0.085620  -0.027954
                 18         19         20         21         22         23    
      0       0.101697   0.164906  -0.008125  -0.086806   0.097079   0.015278
      1       0.018956  -0.034549   0.014795  -0.024223   0.000817   0.025890
      2      -0.024366  -0.000218   0.083788  -0.190330  -0.001543   0.009617
      3      -0.032915  -0.001043   0.191820   0.154125  -0.031322   0.001025
      4       0.030202  -0.043552   0.009588   0.011126   0.002031  -0.008074
      5      -0.020409   0.025022   0.136757   0.117665  -0.019157  -0.020263
      6      -0.036432  -0.010968  -0.030017  -0.015577   0.005145  -0.007296
      7       0.014152   0.012777   0.000393  -0.001897  -0.002010   0.006501
      8       0.041382   0.008021  -0.012437  -0.014219  -0.000363   0.013266
      9       0.004296  -0.021725  -0.127135  -0.073234   0.010897   0.004234
     10      -0.016128  -0.000098  -0.004269   0.000781   0.000237  -0.000139
     11      -0.038724  -0.032318  -0.083034  -0.036259   0.003504   0.001294
     12      -0.036250  -0.107946   0.023056  -0.000845   0.007854  -0.076003
     13      -0.025916   0.052723  -0.005073   0.002931   0.001048   0.012523
     14       0.053151   0.025014  -0.068451   0.048330  -0.020546  -0.012510
     15       0.370129  -0.483410  -0.203277   0.131346  -0.544984   0.002335
     16      -0.030791  -0.013381  -0.144807   0.327427   0.395348   0.017466
     17       0.067581  -0.362149  -0.269464   0.440806   0.183125  -0.015822
     18      -0.425326   0.599846  -0.280487   0.168599  -0.473386  -0.116920
     19      -0.136383   0.166446  -0.000072  -0.164345  -0.413729  -0.042132
     20      -0.391330   0.117254  -0.298182   0.548977   0.280942  -0.015313
     21       0.402555   0.184451   0.498773   0.151648  -0.004067  -0.003115
     22      -0.001499  -0.007869   0.007286  -0.001601  -0.011042  -0.000385
     23       0.197137   0.100271   0.297822   0.106143  -0.002211  -0.005025
     24      -0.414666  -0.331176   0.333364  -0.204925   0.029200   0.525589
     25      -0.136575  -0.100635   0.085637  -0.081116   0.019751  -0.196329
     26      -0.090415  -0.012057   0.049443  -0.008815  -0.022160   0.460434
     27       0.261510   0.096659  -0.363287   0.372533  -0.154049   0.502574
     28       0.110995  -0.047802  -0.106568   0.052684  -0.010687  -0.265902
     29      -0.030218  -0.100824   0.058940  -0.091662   0.042596  -0.354679
                 24         25         26         27         28         29    
      0       0.007494   0.035114   0.029599   0.000325   0.001886  -0.000698
      1      -0.012108   0.041140  -0.081721   0.002845   0.000585   0.000275
      2      -0.042371  -0.051279  -0.014887   0.000061  -0.000520   0.000116
      3      -0.457358   0.001751   0.002230   0.000905   0.000001   0.000475
      4       0.235951   0.000678  -0.001419  -0.000240   0.000298  -0.001042
      5       0.526897   0.000091   0.000532  -0.000086   0.000142  -0.002652
      6       0.281552  -0.000730  -0.000699  -0.000145  -0.000005  -0.000751
      7      -0.146627   0.000321   0.000211   0.000174  -0.000101   0.000417
      8      -0.331326   0.000609   0.000669   0.000293  -0.000062   0.000855
      9       0.027133  -0.000472  -0.000443  -0.000131   0.000064   0.031152
     10      -0.017881  -0.000181   0.000468  -0.000075   0.000018  -0.022663
     11      -0.039159  -0.000238  -0.000188  -0.000225   0.000150  -0.048899
     12      -0.010432   0.001459   0.000448  -0.041230  -0.010249   0.000293
     13       0.003871   0.001039   0.002226   0.038896   0.003932  -0.000236
     14       0.006900   0.001854   0.000297   0.017760  -0.079039  -0.000543
     15       0.019522  -0.320464   0.089683   0.005540  -0.001480  -0.000108
     16      -0.037911  -0.736061   0.177323   0.000579  -0.005587   0.000819
     17      -0.062747   0.526747  -0.152490   0.003184   0.005270  -0.000081
     18      -0.048350  -0.120605  -0.453052   0.006043  -0.002590   0.000189
     19       0.025317   0.231385   0.791686  -0.011356   0.001522  -0.002975
     20      -0.148383   0.064728   0.311549  -0.002083  -0.002131   0.000121
     21       0.328918  -0.002533  -0.008193  -0.004034   0.001972  -0.481486
     22       0.002257   0.003116  -0.003094   0.002258  -0.001129   0.364433
     23       0.174399  -0.001003   0.000342   0.004217  -0.002329   0.794619
     24       0.149928   0.002312   0.000822   0.379860  -0.205096  -0.001812
     25      -0.057839  -0.005152  -0.014970  -0.420789   0.242756   0.003113
     26       0.123481  -0.002771  -0.005886  -0.670269   0.338615   0.005612
     27       0.155919   0.000824   0.003385   0.175250   0.326197  -0.000719
     28      -0.041793  -0.008238  -0.001970  -0.143799  -0.301409   0.000126
     29      -0.075737  -0.009419   0.005788   0.417378   0.761995   0.000053


-----------
IR SPECTRUM
-----------

 Mode    freq (cm**-1)   T**2         TX         TY         TZ
-------------------------------------------------------------------
   6:        90.56   12.696075  (  2.068975   0.892804   2.760130)
   7:       169.11   41.075220  ( -0.278775  -1.693181  -6.175001)
   8:       292.54   13.181550  (  3.382538   0.549174   1.199331)
   9:       469.98   51.499398  ( -0.043198  -6.689029   2.598927)
  10:       483.52   48.301921  ( -2.214522  -6.024899   2.664284)
  11:       574.72   10.703846  (  1.595652   2.847843   0.218016)
  12:       669.85    6.888914  (  0.472280  -1.834682  -1.816537)
  13:       826.92  172.889837  (  9.173670   9.392724  -0.714388)
  14:       879.53   12.117930  ( -2.818805   0.077038   2.041160)
  15:      1018.12    5.041111  (  1.567195   1.000085   1.258905)
  16:      1146.04    7.644277  ( -2.697469  -0.343720  -0.499797)
  17:      1173.75    1.050486  (  0.147527   0.066166   1.012099)
  18:      1231.65   23.607774  (  4.696413  -1.065578  -0.644998)
  19:      1254.79   28.422856  (  5.276584  -0.361742   0.670569)
  20:      1329.02  323.320313  ( 17.052076  -1.670420   5.454970)
  21:      1440.43  109.243181  (  8.138071  -0.622164   6.529004)
  22:      1480.71    0.789803  ( -0.053547   0.500153   0.732655)
  23:      1617.65   57.317109  (  6.705676  -3.509491  -0.185733)
  24:      1929.85  250.945754  (-10.038721   4.520690  11.390048)
  25:      2961.33   51.695715  (  6.159888   3.206778  -1.862275)
  26:      3015.78   38.832829  (  4.039026  -4.724132  -0.449078)
  27:      3540.86   18.257892  (  0.780969  -2.560262  -3.330621)
  28:      3650.51   17.817483  (  0.384139   0.024075   4.203491)
  29:      3860.19   64.398144  ( -5.657438   2.858877   4.921215)

The first frequency considered to be a vibration is 6
The total number of vibrations considered is 24


--------------------------
THERMOCHEMISTRY AT 298.15K
--------------------------

Temperature         ... 298.15 K
Pressure            ... 1.00 atm
Total Mass          ... 75.07 AMU

Throughout the following assumptions are being made:
  (1) The electronic state is orbitally nondegenerate
  (2) There are no thermally accessible electronically excited states
  (3) Hindered rotations indicated by low frequency modes are not
      treated as such but are treated as vibrations and this may
      cause some error
  (4) All equations used are the standard statistical mechanics
      equations for an ideal gas
  (5) All vibrations are strictly harmonic

freq.      90.56  E(vib)   ...       0.47 
freq.     169.11  E(vib)   ...       0.38 
freq.     292.54  E(vib)   ...       0.27 
freq.     469.98  E(vib)   ...       0.16 
freq.     483.52  E(vib)   ...       0.15 
freq.     574.72  E(vib)   ...       0.11 
freq.     669.85  E(vib)   ...       0.08 
freq.     826.92  E(vib)   ...       0.04 
freq.     879.53  E(vib)   ...       0.04 
freq.    1018.12  E(vib)   ...       0.02 
freq.    1146.04  E(vib)   ...       0.01 
freq.    1173.75  E(vib)   ...       0.01 
freq.    1231.65  E(vib)   ...       0.01 
freq.    1254.79  E(vib)   ...       0.01 
freq.    1329.02  E(vib)   ...       0.01 
freq.    1440.43  E(vib)   ...       0.00 
freq.    1480.71  E(vib)   ...       0.00 
freq.    1617.65  E(vib)   ...       0.00 
freq.    1929.85  E(vib)   ...       0.00 
freq.    2961.33  E(vib)   ...       0.00 
freq.    3015.78  E(vib)   ...       0.00 
freq.    3540.86  E(vib)   ...       0.00 
freq.    3650.51  E(vib)   ...       0.00 
freq.    3860.19  E(vib)   ...       0.00 

------------
INNER ENERGY
------------

The inner energy is: U= E(el) + E(ZPE) + E(vib) + E(rot) + E(trans)
    E(el)   - is the total energy from the electronic structure calculation
              = E(kin-el) + E(nuc-el) + E(el-el) + E(nuc-nuc)
    E(ZPE)  - the the zero temperature vibrational energy from the frequency calculation
    E(vib)  - the the finite temperature correction to E(ZPE) due to population
              of excited vibrational states
    E(rot)  - is the rotational thermal energy
    E(trans)- is the translational thermal energy

Summary of contributions to the inner energy U:
Electronic energy                ...   -283.89973390 Eh
Zero point energy                ...      0.07998056 Eh      50.19 kcal/mol
Thermal vibrational correction   ...      0.00283360 Eh       1.78 kcal/mol
Thermal rotational correction    ...      0.00141627 Eh       0.89 kcal/mol
Thermal translational correction ...      0.00141627 Eh       0.89 kcal/mol
-----------------------------------------------------------------------
Total thermal energy                   -283.81408719 Eh


Summary of corrections to the electronic energy:
(perhaps to be used in another calculation)
Total thermal correction                  0.00566615 Eh       3.56 kcal/mol
Non-thermal (ZPE) correction              0.07998056 Eh      50.19 kcal/mol
-----------------------------------------------------------------------
Total correction                          0.08564671 Eh      53.74 kcal/mol


--------
ENTHALPY
--------

The enthalpy is H = U + kB*T
                kB is Boltzmann's constant
Total free energy                 ...   -283.81408719 Eh 
Thermal Enthalpy correction       ...      0.00094421 Eh       0.59 kcal/mol
-----------------------------------------------------------------------
Total Enthalpy                    ...   -283.81314298 Eh


Vibrational entropy computed according to the QRRHO of S. Grimme
Chem.Eur.J. 2012 18 9955

check  

-------
ENTROPY
-------

The entropy contributions are T*S = T*(S(el)+S(vib)+S(rot)+S(trans)
     S(el)   - electronic entropy
     S(vib)  - vibrational entropy
     S(rot)  - rotational entropy
     S(trans)- translational entropy
The entropies will be listed as mutliplied by the temperature to get
units of energy

Electronic entropy                ...      0.00000000 Eh      0.00 kcal/mol
Vibrational entropy               ...      0.00478161 Eh      3.00 kcal/mol
Rotational entropy                ...      0.01101287 Eh      6.91 kcal/mol
Translational entropy             ...      0.01846507 Eh     11.59 kcal/mol
-----------------------------------------------------------------------
Final entropy term                ...      0.03425956 Eh     21.50 kcal/mol


CAUTION: The rotational entropy is not quite correctly treated here
         because it includes a symmetry number that is not yet correctly
         implemented in ORCA!
For a nonlinear molecule the correct rotational entropy is:
    S(rot) = R*(ln(qrot/sn)+1.5)
    R    = 8.31441 J/mol/K = 1.987191683e-3 kcal/mol/K
    qrot = 77851.4104196
    sn is the rotational symmetry number. We have assumed 3 here
       if it is different for your molecule then you should correct
       the printed rotational entropy by manually evaluating the equation
       as given above

For convenience we print out the resulting values for sn=1 - 12:
 sn= 1  qrot/sn=   77851.4104 T*S(rot)=     7.56 kcal/mol T*S(tot)=    22.15 kcal/mol
 sn= 2  qrot/sn=   38925.7052 T*S(rot)=     7.15 kcal/mol T*S(tot)=    21.74 kcal/mol
 sn= 3  qrot/sn=   25950.4701 T*S(rot)=     6.91 kcal/mol T*S(tot)=    21.50 kcal/mol
 sn= 4  qrot/sn=   19462.8526 T*S(rot)=     6.74 kcal/mol T*S(tot)=    21.33 kcal/mol
 sn= 5  qrot/sn=   15570.2821 T*S(rot)=     6.61 kcal/mol T*S(tot)=    21.20 kcal/mol
 sn= 6  qrot/sn=   12975.2351 T*S(rot)=     6.50 kcal/mol T*S(tot)=    21.09 kcal/mol
 sn= 7  qrot/sn=   11121.6301 T*S(rot)=     6.41 kcal/mol T*S(tot)=    21.00 kcal/mol
 sn= 8  qrot/sn=    9731.4263 T*S(rot)=     6.33 kcal/mol T*S(tot)=    20.92 kcal/mol
 sn= 9  qrot/sn=    8650.1567 T*S(rot)=     6.26 kcal/mol T*S(tot)=    20.85 kcal/mol
 sn=10  qrot/sn=    7785.1410 T*S(rot)=     6.20 kcal/mol T*S(tot)=    20.78 kcal/mol
 sn=11  qrot/sn=    7077.4009 T*S(rot)=     6.14 kcal/mol T*S(tot)=    20.73 kcal/mol
 sn=12  qrot/sn=    6487.6175 T*S(rot)=     6.09 kcal/mol T*S(tot)=    20.68 kcal/mol


-------------------
GIBBS FREE ENTHALPY
-------------------

The Gibbs free enthalpy is G = H - T*S

Total enthalpy                    ...   -283.81314298 Eh 
Total entropy correction          ...     -0.03425956 Eh    -21.50 kcal/mol
-----------------------------------------------------------------------
Final Gibbs free enthalpy         ...   -283.84740253 Eh

For completeness - the Gibbs free enthalpy minus the electronic energy
G-E(el)                           ...      0.05233136 Eh     32.84 kcal/mol


Timings for individual modules:

Sum of individual times         ...      337.566 sec (=   5.626 min)
GTO integral calculation        ...        6.641 sec (=   0.111 min)   2.0 %
SCF iterations                  ...      104.811 sec (=   1.747 min)  31.0 %
SCF Gradient evaluation         ...       55.060 sec (=   0.918 min)  16.3 %
Geometry relaxation             ...        4.357 sec (=   0.073 min)   1.3 %
Analytical frequency calculation...      166.697 sec (=   2.778 min)  49.4 %
                             ****ORCA TERMINATED NORMALLY****
TOTAL RUN TIME: 0 days 0 hours 5 minutes 38 seconds 800 msec
