
                                 *****************
                                 * O   R   C   A *
                                 *****************

           --- An Ab Initio, DFT and Semiempirical electronic structure package ---

                  #######################################################
                  #                        -***-                        #
                  #  Department of molecular theory and spectroscopy    #
                  #              Directorship: Frank Neese              #
                  # Max Planck Institute for Chemical Energy Conversion #
                  #                  D-45470 Muelheim/Ruhr              #
                  #                       Germany                       #
                  #                                                     #
                  #                  All rights reserved                #
                  #                        -***-                        #
                  #######################################################


                         Program Version 4.0.0 -  RELEASE  -


 With contributions from (in alphabetic order):
   Daniel Aravena         : Magnetic Properties
   Michael Atanasov       : Ab Initio Ligand Field Theory
   Ute Becker             : Parallelization
   Martin Brehm           : Molecular dynamics
   Dmytro Bykov           : SCF Hessian
   Vijay G. Chilkuri      : MRCI spin determinant printing
   Dipayan Datta          : RHF DLPNO-CCSD density
   Achintya Kumar Dutta   : EOM-CC, STEOM-CC
   Dmitry Ganyushin       : Spin-Orbit,Spin-Spin,Magnetic field MRCI
   Yang Guo               : DLPNO-NEVPT2, CIM, IAO-localization
   Andreas Hansen         : Spin unrestricted coupled pair/coupled cluster methods
   Lee Huntington         : MR-EOM, pCC
   Robert Izsak           : Overlap fitted RIJCOSX, COSX-SCS-MP3, EOM
   Christian Kollmar      : KDIIS, OOCD, Brueckner-CCSD(T), CCSD density
   Simone Kossmann        : Meta GGA functionals, TD-DFT gradient, OOMP2, MP2 Hessian
   Martin Krupicka        : AUTO-CI
   Dagmar Lenk            : GEPOL surface
   Dimitrios Liakos       : Extrapolation schemes; parallel MDCI
   Dimitrios Manganas     : ROCIS; embedding schemes
   Dimitrios Pantazis     : SARC Basis sets
   Taras Petrenko         : DFT Hessian,TD-DFT gradient, ASA, ECA, R-Raman, ABS, FL, XAS/XES, NRVS
   Peter Pinski           : DLPNO-MP2
   Christoph Reimann      : Effective Core Potentials
   Marius Retegan         : Local ZFS, SOC
   Christoph Riplinger    : Optimizer, TS searches, QM/MM, DLPNO-CCSD(T), (RO)-DLPNO pert. Triples
   Tobias Risthaus        : Range-separated hybrids, TD-DFT gradient, RPA, STAB
   Michael Roemelt        : Restricted open shell CIS
   Masaaki Saitow         : Open-shell DLPNO
   Barbara Sandhoefer     : DKH picture change effects
   Kantharuban Sivalingam : CASSCF convergence, NEVPT2, FIC-MRCI
   Georgi Stoychev        : AutoAux
   Boris Wezisla          : Elementary symmetry handling
   Frank Wennmohs         : Technical directorship


 We gratefully acknowledge several colleagues who have allowed us to
 interface, adapt or use parts of their codes:
   Stefan Grimme, W. Hujo, H. Kruse,             : VdW corrections, initial TS optimization,
                  C. Bannwarth                     DFT functionals, gCP, sTDA/sTD-DF
   Ed Valeev                                     : LibInt (2-el integral package), F12 methods
   Garnet Chan, S. Sharma, J. Yang, R. Olivares  : DMRG
   Ulf Ekstrom                                   : XCFun DFT Library
   Mihaly Kallay                                 : mrcc  (arbitrary order and MRCC methods)
   Jiri Pittner, Ondrej Demel                    : Mk-CCSD
   Frank Weinhold                                : gennbo (NPA and NBO analysis)
   Christopher J. Cramer and Donald G. Truhlar   : smd solvation model


 Your calculation uses the libint2 library for the computation of 2-el integrals
 For citations please refer to: http://libint.valeyev.net

 This ORCA versions uses:
   CBLAS   interface :  Fast vector & matrix operations
   LAPACKE interface :  Fast linear algebra routines




*****************************************
The coordinations will be read from file: methionine.xyz
*****************************************


Your calculation utilizes the basis: def2-SVP
   F. Weigend and R. Ahlrichs, Phys. Chem. Chem. Phys. 7, 3297 (2005).

================================================================================
                                        WARNINGS
                       Please study these warnings very carefully!
================================================================================

Warning: TCutStore was < 0. Adjusted to Thresh (uncritical)

WARNING: Geometry Optimization
  ===> : Switching off AutoStart
         For restart on a previous wavefunction, please use MOREAD

INFO   : the flag for use of LIBINT has been found!

================================================================================
                                       INPUT FILE
================================================================================
NAME = methionine.inp
|  1> ! PBE0
|  2> ! opt anfreq
|  3> * xyzfile 0 1 methionine.xyz **                         ****END OF INPUT****
================================================================================

                       *****************************
                       * Geometry Optimization Run *
                       *****************************

Geometry optimization settings:
Update method            Update   .... BFGS
Choice of coordinates    CoordSys .... Redundant Internals
Initial Hessian          InHess   .... Almoef's Model

Convergence Tolerances:
Energy Change            TolE     .... 5.0000e-006 Eh
Max. Gradient            TolMAXG  .... 3.0000e-004 Eh/bohr
RMS Gradient             TolRMSG  .... 1.0000e-004 Eh/bohr
Max. Displacement        TolMAXD  .... 4.0000e-003 bohr
RMS Displacement         TolRMSD  .... 2.0000e-003 bohr

------------------------------------------------------------------------------
                        ORCA OPTIMIZATION COORDINATE SETUP
------------------------------------------------------------------------------

The optimization will be done in new redundant internal coordinates
Making redundant internal coordinates   ...  (new redundants) done
Evaluating the initial hessian          ...  (Almloef) done
Evaluating the coordinates              ...  done
Calculating the B-matrix                .... done
Calculating the G-matrix                .... done
Diagonalizing the G-matrix              .... done
Small eigenvalue found = 8.747e-003
The first mode is                       ....   35
The number of degrees of freedom        ....   54

    -----------------------------------------------------------------
                    Redundant Internal Coordinates


    -----------------------------------------------------------------
         Definition                    Initial Value    Approx d2E/dq
    -----------------------------------------------------------------
      1. B(S   1,C   0)                  1.8207         0.346175   
      2. B(C   2,S   1)                  1.8250         0.340846   
      3. B(C   3,C   2)                  1.5307         0.372669   
      4. B(C   4,C   3)                  1.5475         0.350261   
      5. B(C   5,C   4)                  1.5243         0.381435   
      6. B(O   6,C   5)                  1.2215         1.039047   
      7. B(O   7,C   5)                  1.3504         0.647170   
      8. B(N   8,C   4)                  1.4670         0.421653   
      9. B(H   9,C   0)                  1.1093         0.335437   
     10. B(H  10,C   0)                  1.1098         0.334866   
     11. B(H  11,C   0)                  1.1100         0.334604   
     12. B(H  12,C   2)                  1.1074         0.337749   
     13. B(H  13,C   2)                  1.1117         0.332480   
     14. B(H  14,C   3)                  1.1129         0.331095   
     15. B(H  15,C   3)                  1.1123         0.331734   
     16. B(H  16,C   4)                  1.1123         0.331817   
     17. B(H  17,O   7)                  0.9666         0.507548   
     18. B(H  18,N   8)                  1.0466         0.378219   
     19. B(H  19,N   8)                  1.0462         0.378779   
     20. A(S   1,C   0,H  11)          110.6316         0.332454   
     21. A(H   9,C   0,H  11)          107.3393         0.284350   
     22. A(H  10,C   0,H  11)          111.7527         0.284275   
     23. A(S   1,C   0,H   9)          108.3365         0.332591   
     24. A(H   9,C   0,H  10)          108.2251         0.284385   
     25. A(S   1,C   0,H  10)          110.4156         0.332497   
     26. A(C   0,S   1,C   2)           94.6888         0.391510   
     27. A(S   1,C   2,H  12)          108.0052         0.332115   
     28. A(H  12,C   2,H  13)          111.8259         0.284372   
     29. A(C   3,C   2,H  13)          109.1501         0.319980   
     30. A(S   1,C   2,H  13)          109.2541         0.331251   
     31. A(C   3,C   2,H  12)          109.1969         0.320803   
     32. A(S   1,C   2,C   3)          109.3745         0.376424   
     33. A(C   2,C   3,C   4)          115.2733         0.359231   
     34. A(C   4,C   3,H  15)          109.4765         0.316645   
     35. A(C   2,C   3,H  15)          108.7938         0.319862   
     36. A(C   4,C   3,H  14)          107.2824         0.316545   
     37. A(C   2,C   3,H  14)          107.6896         0.319761   
     38. A(H  14,C   3,H  15)          108.0913         0.283396   
     39. A(N   8,C   4,H  16)          107.3549         0.324466   
     40. A(C   5,C   4,H  16)          107.8428         0.321093   
     41. A(C   3,C   4,H  16)          109.0428         0.316657   
     42. A(C   5,C   4,N   8)          110.7566         0.369974   
     43. A(C   3,C   4,N   8)          108.0785         0.364604   
     44. A(C   3,C   4,C   5)          113.5790         0.360656   
     45. A(O   6,C   5,O   7)          118.3895         0.474209   
     46. A(C   4,C   5,O   7)          121.1522         0.398584   
     47. A(C   4,C   5,O   6)          120.3638         0.433602   
     48. A(C   5,O   7,H  17)          122.4098         0.371311   
     49. A(C   4,N   8,H  19)          109.9654         0.328800   
     50. A(C   4,N   8,H  18)          110.6950         0.328720   
     51. A(H  18,N   8,H  19)          109.0523         0.290661   
     52. D(C   2,S   1,C   0,H   9)   -174.9416         0.003413   
     53. D(C   2,S   1,C   0,H  11)    -57.5370         0.003413   
     54. D(C   2,S   1,C   0,H  10)     66.7042         0.003413   
     55. D(H  12,C   2,S   1,C   0)     58.0904         0.003353   
     56. D(C   3,C   2,S   1,C   0)    176.8279         0.003353   
     57. D(H  13,C   2,S   1,C   0)    -63.7546         0.003353   
     58. D(H  15,C   3,C   2,H  12)     57.4746         0.011093   
     59. D(C   4,C   3,C   2,S   1)    176.1029         0.011093   
     60. D(H  15,C   3,C   2,S   1)    -60.5200         0.011093   
     61. D(H  14,C   3,C   2,S   1)     56.4059         0.011093   
     62. D(C   4,C   3,C   2,H  13)     56.6212         0.011093   
     63. D(H  15,C   3,C   2,H  13)    179.9983         0.011093   
     64. D(H  14,C   3,C   2,H  13)    -63.0758         0.011093   
     65. D(C   4,C   3,C   2,H  12)    -65.9025         0.011093   
     66. D(H  14,C   3,C   2,H  12)    174.4005         0.011093   
     67. D(H  16,C   4,C   3,H  15)    177.5861         0.009883   
     68. D(H  16,C   4,C   3,C   2)    -59.3988         0.009883   
     69. D(N   8,C   4,C   3,H  15)     61.1872         0.009883   
     70. D(N   8,C   4,C   3,H  14)    -55.8769         0.009883   
     71. D(N   8,C   4,C   3,C   2)   -175.7978         0.009883   
     72. D(C   5,C   4,C   3,H  15)    -62.1276         0.009883   
     73. D(H  16,C   4,C   3,H  14)     60.5221         0.009883   
     74. D(C   5,C   4,C   3,H  14)   -179.1916         0.009883   
     75. D(C   5,C   4,C   3,C   2)     60.8875         0.009883   
     76. D(O   7,C   5,C   4,H  16)     50.8136         0.010852   
     77. D(O   7,C   5,C   4,N   8)    168.0142         0.010852   
     78. D(O   7,C   5,C   4,C   3)    -70.1488         0.010852   
     79. D(O   6,C   5,C   4,H  16)   -125.5949         0.010852   
     80. D(O   6,C   5,C   4,N   8)     -8.3943         0.010852   
     81. D(O   6,C   5,C   4,C   3)    113.4428         0.010852   
     82. D(H  17,O   7,C   5,C   4)     -4.3340         0.030931   
     83. D(H  17,O   7,C   5,O   6)    172.1436         0.030931   
     84. D(H  19,N   8,C   4,H  16)     58.0471         0.015159   
     85. D(H  19,N   8,C   4,C   5)    -59.4527         0.015159   
     86. D(H  19,N   8,C   4,C   3)    175.5379         0.015159   
     87. D(H  18,N   8,C   4,H  16)    178.6109         0.015159   
     88. D(H  18,N   8,C   4,C   5)     61.1111         0.015159   
     89. D(H  18,N   8,C   4,C   3)    -63.8984         0.015159   
    -----------------------------------------------------------------

Number of atoms                         .... 20
Number of degrees of freedom            .... 89

         *************************************************************
         *                GEOMETRY OPTIMIZATION CYCLE   1            *
         *************************************************************
---------------------------------
CARTESIAN COORDINATES (ANGSTROEM)
---------------------------------
  C      1.056670    0.002440    0.114280
  S      2.854340    0.191810   -0.103890
  C      3.277100   -0.506780    1.528200
  C      4.799400   -0.578450    1.670990
  C      5.311670   -1.065440    3.047690
  C      4.855590   -2.475630    3.403980
  O      5.667760   -3.384000    3.490090
  O      3.564720   -2.738170    3.701250
  N      6.776080   -0.977580    3.045610
  H      0.557640    0.293110   -0.832850
  H      0.691560    0.673620    0.919150
  H      0.796420   -1.058080    0.313390
  H      2.857770   -1.530380    1.581450
  H      2.866530    0.150080    2.325630
  H      5.202590    0.446530    1.511900
  H      5.203790   -1.236760    0.870750
  H      4.939110   -0.376930    3.837810
  H      2.895220   -2.043560    3.760860
  H      7.184520   -1.626170    2.332900
  H      7.150350   -1.228380    3.989870

----------------------------
CARTESIAN COORDINATES (A.U.)
----------------------------
  NO LB      ZA    FRAG     MASS         X           Y           Z
   0 C     6.0000    0    12.011    1.996817    0.004611    0.215958
   1 S    16.0000    0    32.060    5.393921    0.362468   -0.196324
   2 C     6.0000    0    12.011    6.192822   -0.957675    2.887879
   3 C     6.0000    0    12.011    9.069552   -1.093112    3.157713
   4 C     6.0000    0    12.011   10.037602   -2.013390    5.759299
   5 C     6.0000    0    12.011    9.175735   -4.678263    6.432590
   6 O     8.0000    0    15.999   10.710514   -6.394833    6.595314
   7 O     8.0000    0    15.999    6.736345   -5.174391    6.994349
   8 N     7.0000    0    14.007   12.804935   -1.847358    5.755369
   9 H     1.0000    0     1.008    1.053787    0.553898   -1.573858
  10 H     1.0000    0     1.008    1.306859    1.272957    1.736942
  11 H     1.0000    0     1.008    1.505016   -1.999481    0.592221
  12 H     1.0000    0     1.008    5.400403   -2.891999    2.988507
  13 H     1.0000    0     1.008    5.416957    0.283610    4.394804
  14 H     1.0000    0     1.008    9.831470    0.843819    2.857077
  15 H     1.0000    0     1.008    9.833738   -2.337138    1.645479
  16 H     1.0000    0     1.008    9.333565   -0.712294    7.252410
  17 H     1.0000    0     1.008    5.471173   -3.861769    7.106995
  18 H     1.0000    0     1.008   13.576775   -3.073016    4.408542
  19 H     1.0000    0     1.008   13.512203   -2.321302    7.539762

--------------------------------
INTERNAL COORDINATES (ANGSTROEM)
--------------------------------
 C      0   0   0     0.000000000000     0.00000000     0.00000000
 S      1   0   0     1.820735174236     0.00000000     0.00000000
 C      2   1   0     1.824958019736    94.68884880     0.00000000
 C      3   2   1     1.530660923588   109.37445932   176.82785033
 C      4   3   2     1.547540856650   115.27329786   176.10292422
 C      5   4   3     1.524331777075   113.57898644    60.88747904
 O      6   5   4     1.221544554202   120.36380457   113.44275867
 O      6   5   4     1.350422919459   121.15220546   289.85123191
 N      5   4   3     1.467044768949   108.07850829   184.20219831
 H      1   2   3     1.109312952552   108.33647736   185.05840123
 H      1   2   3     1.109776383512   110.41563091    66.70418481
 H      1   2   3     1.109989876080   110.63159204   302.46299349
 H      3   2   1     1.107443078176   108.00520905    58.09041229
 H      3   2   1     1.111722712460   109.25410290   296.24539656
 H      4   3   2     1.112859292364   107.68963168    56.40590942
 H      4   3   2     1.112334205983   108.79381601   299.47997788
 H      5   4   3     1.112266419569   109.04282138   300.60116403
 H      8   6   5     0.966574701821   122.40979203   355.66604573
 H      9   5   4     1.046636405730   110.69495738   296.10163703
 H      9   5   4     1.046234018038   109.96537116   175.53785420

---------------------------
INTERNAL COORDINATES (A.U.)
---------------------------
 C      0   0   0     0.000000000000     0.00000000     0.00000000
 S      1   0   0     3.440690841703     0.00000000     0.00000000
 C      2   1   0     3.448670863205    94.68884880     0.00000000
 C      3   2   1     2.892529949477   109.37445932   176.82785033
 C      4   3   2     2.924428400122   115.27329786   176.10292422
 C      5   4   3     2.880569595905   113.57898644    60.88747904
 O      6   5   4     2.308384667824   120.36380457   113.44275867
 O      6   5   4     2.551929482748   121.15220546   289.85123191
 N      5   4   3     2.772312839515   108.07850829   184.20219831
 H      1   2   3     2.096297677135   108.33647736   185.05840123
 H      1   2   3     2.097173434730   110.41563091    66.70418481
 H      1   2   3     2.097576877216   110.63159204   302.46299349
 H      3   2   1     2.092764126659   108.00520905    58.09041229
 H      3   2   1     2.100851463410   109.25410290   296.24539656
 H      4   3   2     2.102999288157   107.68963168    56.40590942
 H      4   3   2     2.102007018701   108.79381601   299.47997788
 H      5   4   3     2.101878920942   109.04282138   300.60116403
 H      8   6   5     1.826561474418   122.40979203   355.66604573
 H      9   5   4     1.977856168622   110.69495738   296.10163703
 H      9   5   4     1.977095766084   109.96537116   175.53785420

---------------------
BASIS SET INFORMATION
---------------------
There are 5 groups of distinct atoms

 Group   1 Type C   : 7s4p1d contracted to 3s2p1d pattern {511/31/1}
 Group   2 Type S   : 10s7p1d contracted to 4s3p1d pattern {5311/511/1}
 Group   3 Type O   : 7s4p1d contracted to 3s2p1d pattern {511/31/1}
 Group   4 Type N   : 7s4p1d contracted to 3s2p1d pattern {511/31/1}
 Group   5 Type H   : 4s1p contracted to 2s1p pattern {31/1}

Atom   0C    basis set group =>   1
Atom   1S    basis set group =>   2
Atom   2C    basis set group =>   1
Atom   3C    basis set group =>   1
Atom   4C    basis set group =>   1
Atom   5C    basis set group =>   1
Atom   6O    basis set group =>   3
Atom   7O    basis set group =>   3
Atom   8N    basis set group =>   4
Atom   9H    basis set group =>   5
Atom  10H    basis set group =>   5
Atom  11H    basis set group =>   5
Atom  12H    basis set group =>   5
Atom  13H    basis set group =>   5
Atom  14H    basis set group =>   5
Atom  15H    basis set group =>   5
Atom  16H    basis set group =>   5
Atom  17H    basis set group =>   5
Atom  18H    basis set group =>   5
Atom  19H    basis set group =>   5
-------------------------
ECP PARAMETER INFORMATION
-------------------------



------------------------------------------------------------------------------
                           ORCA GTO INTEGRAL CALCULATION
------------------------------------------------------------------------------

                         BASIS SET STATISTICS AND STARTUP INFO

 # of primitive gaussian shells          ...  169
 # of primitive gaussian functions       ...  305
 # of contracted shells                  ...   89
 # of contracted basis functions         ...  185
 Highest angular momentum                ...    2
 Maximum contraction depth               ...    5
 Integral package used                   ... LIBINT
 Integral threshhold            Thresh   ... 2.500e-011
 Primitive cut-off              TCut     ... 2.500e-012


------------------------------ INTEGRAL EVALUATION ----------------------------


 * One electron integrals 

   ECP integrals                          Pre-screening matrix                    ... done
 Shell pair data                         ... done (   0.000 sec)

Timings:
 Total evaluation time               ...     0.020 sec (   0.000 min)
 One electron matrix time            ...     0.021 sec (   0.000 min) =105.0%
 Schwartz matrix evaluation time     ...     0.104 sec (   0.002 min) =520.0%

-------------------------------------------------------------------------------
                                 ORCA SCF
-------------------------------------------------------------------------------

------------
SCF SETTINGS
------------
Hamiltonian:
 Density Functional     Method          .... DFT(GTOs)
 Exchange Functional    Exchange        .... PBE
   PBE kappa parameter   XKappa         ....  0.804000
   PBE mue parameter    XMuePBE         ....  0.219520
 Correlation Functional Correlation     .... PBE
   PBE beta parameter  CBetaPBE         ....  0.066725
 LDA part of GGA corr.  LDAOpt          .... PW91-LDA
 Gradients option       PostSCFGGA      .... off
 Hybrid DFT is turned on
   Fraction HF Exchange ScalHFX         ....  0.250000
   Scaling of DF-GGA-X  ScalDFX         ....  0.750000
   Scaling of DF-GGA-C  ScalDFC         ....  1.000000
   Scaling of DF-LDA-C  ScalLDAC        ....  1.000000
   Perturbative correction              ....  0.000000
   NL short-range parameter             ....  6.900000


General Settings:
 Integral files         IntName         .... methionine
 Hartree-Fock type      HFTyp           .... RHF
 Total Charge           Charge          ....    0
 Multiplicity           Mult            ....    1
 Number of Electrons    NEL             ....   80
 Basis Dimension        Dim             ....  185
 Nuclear Repulsion      ENuc            ....    538.7280364011 Eh

Convergence Acceleration:
 DIIS                   CNVDIIS         .... on
   Start iteration      DIISMaxIt       ....    12
   Startup error        DIISStart       ....  0.200000
   # of expansion vecs  DIISMaxEq       ....     5
   Bias factor          DIISBfac        ....   1.050
   Max. coefficient     DIISMaxC        ....  10.000
 Newton-Raphson         CNVNR           .... off
 SOSCF                  CNVSOSCF        .... on
   Start iteration      SOSCFMaxIt      ....   150
   Startup grad/error   SOSCFStart      ....  0.003300
 Level Shifting         CNVShift        .... on
   Level shift para.    LevelShift      ....    0.2500
   Turn off err/grad.   ShiftErr        ....    0.0010
 Zerner damping         CNVZerner       .... off
 Static damping         CNVDamp         .... on
   Fraction old density DampFac         ....    0.7000
   Max. Damping (<1)    DampMax         ....    0.9800
   Min. Damping (>=0)   DampMin         ....    0.0000
   Turn off err/grad.   DampErr         ....    0.1000
 Fernandez-Rico         CNVRico         .... off

SCF Procedure:
 Maximum # iterations   MaxIter         ....   125
 SCF integral mode      SCFMode         .... Direct
   Integral package                     .... LIBINT
 Reset frequeny         DirectResetFreq ....    20
 Integral Threshold     Thresh          .... 2.500e-011 Eh
 Primitive CutOff       TCut            .... 2.500e-012 Eh

Convergence Tolerance:
 Convergence Check Mode ConvCheckMode   .... Total+1el-Energy
 Convergence forced     ConvForced      .... 0
 Energy Change          TolE            .... 1.000e-008 Eh
 1-El. energy change                    .... 1.000e-005 Eh
 Orbital Gradient       TolG            .... 1.000e-005
 Orbital Rotation angle TolX            .... 1.000e-005
 DIIS Error             TolErr          .... 5.000e-007


Diagonalization of the overlap matrix:
Smallest eigenvalue                        ... 1.340e-003
Time for diagonalization                   ...    0.016 sec
Threshold for overlap eigenvalues          ... 1.000e-008
Number of eigenvalues below threshold      ... 0
Time for construction of square roots      ...    0.003 sec
Total time needed                          ...    0.019 sec

-------------------
DFT GRID GENERATION
-------------------

General Integration Accuracy     IntAcc      ...  4.340
Radial Grid Type                 RadialGrid  ... Gauss-Chebyshev
Angular Grid (max. acc.)         AngularGrid ... Lebedev-110
Angular grid pruning method      GridPruning ... 3 (G Style)
Weight generation scheme         WeightScheme... Becke
Basis function cutoff            BFCut       ...   1.0000e-011
Integration weight cutoff        WCut        ...   1.0000e-014
Grids for H and He will be reduced by one unit

# of grid points (after initial pruning)     ...  23954 (   0.0 sec)
# of grid points (after weights+screening)   ...  22086 (   0.0 sec)
nearest neighbour list constructed           ...    0.0 sec
Grid point re-assignment to atoms done       ...    0.0 sec
Grid point division into batches done        ...    0.0 sec
Reduced shell lists constructed in    0.1 sec

Total number of grid points                  ...    22086
Total number of batches                      ...      355
Average number of points per batch           ...       62
Average number of grid points per atom       ...     1104
Average number of shells per batch           ...    58.02 (65.19%)
Average number of basis functions per batch  ...   116.57 (63.01%)
Average number of large shells per batch     ...    43.45 (74.88%)
Average number of large basis fcns per batch ...    85.57 (73.40%)
Maximum spatial batch extension              ...  18.42, 20.05, 19.78 au
Average spatial batch extension              ...   3.50,  3.62,  3.63 au

Time for grid setup =    0.223 sec

------------------------------
INITIAL GUESS: MODEL POTENTIAL
------------------------------
Loading Hartree-Fock densities                     ... done
Calculating cut-offs                               ... done
Setting up the integral package                    ... done
Initializing the effective Hamiltonian             ... done
Starting the Coulomb interaction                   ... done (   0.1 sec)
Reading the grid                                   ... done
Mapping shells                                     ... done
Starting the XC term evaluation                    ... done (   0.2 sec)
  promolecular density results
     # of electrons  =     79.988519510
     EX              =    -76.514369587
     EC              =     -2.742626164
     EX+EC           =    -79.256995751
Transforming the Hamiltonian                       ... done (   0.0 sec)
Diagonalizing the Hamiltonian                      ... done (   0.0 sec)
Back transforming the eigenvectors                 ... done (   0.0 sec)
Now organizing SCF variables                       ... done
                      ------------------
                      INITIAL GUESS DONE (   0.6 sec)
                      ------------------
--------------
SCF ITERATIONS
--------------
ITER       Energy         Delta-E        Max-DP      RMS-DP      [F,P]     Damp
               ***  Starting incremental Fock matrix formation  ***
  0   -799.2451057202   0.000000000000 0.09657624  0.00251216  0.2586101 0.7000
  1   -799.3796910219  -0.134585301652 0.05657552  0.00161072  0.1069329 0.7000
                               ***Turning on DIIS***
  2   -799.4286623298  -0.048971307905 0.07161284  0.00235670  0.0355716 0.0000
  3   -799.5088251310  -0.080162801195 0.04492439  0.00113398  0.0595985 0.0000
  4   -799.5258291235  -0.017003992484 0.01303870  0.00031864  0.0134808 0.0000
  5   -799.5267935596  -0.000964436111 0.00402231  0.00011017  0.0064060 0.0000
                      *** Initiating the SOSCF procedure ***
                           *** Shutting down DIIS ***
                      *** Re-Reading the Fockian *** 
                      *** Removing any level shift *** 
ITER      Energy       Delta-E        Grad      Rot      Max-DP    RMS-DP
  6   -799.52687403  -0.0000804711  0.000209  0.000209  0.001336  0.000047
               *** Restarting incremental Fock matrix formation ***
  7   -799.52687912  -0.0000050885  0.000178  0.000543  0.001097  0.000026
  8   -799.52687724   0.0000018758  0.000367  0.000435  0.000765  0.000015
  9   -799.52688064  -0.0000033922  0.000050  0.000117  0.000249  0.000006
 10   -799.52688052   0.0000001115  0.000082  0.000079  0.000157  0.000004
 11   -799.52688069  -0.0000001672  0.000007  0.000008  0.000033  0.000001
 12   -799.52688069  -0.0000000001  0.000007  0.000004  0.000017  0.000001
                  ***Gradient check signals convergence***
              ***Rediagonalizing the Fockian in SOSCF/NRSCF***

               *****************************************************
               *                     SUCCESS                       *
               *           SCF CONVERGED AFTER  13 CYCLES          *
               *****************************************************

Setting up the final grid:

General Integration Accuracy     IntAcc      ...  4.670
Radial Grid Type                 RadialGrid  ... Gauss-Chebyshev
Angular Grid (max. acc.)         AngularGrid ... Lebedev-302
Angular grid pruning method      GridPruning ... 3 (G Style)
Weight generation scheme         WeightScheme... Becke
Basis function cutoff            BFCut       ...   1.0000e-011
Integration weight cutoff        WCut        ...   1.0000e-014
Grids for H and He will be reduced by one unit

# of grid points (after initial pruning)     ...  93876 (   0.0 sec)
# of grid points (after weights+screening)   ...  85177 (   0.2 sec)
nearest neighbour list constructed           ...    0.0 sec
Grid point re-assignment to atoms done       ...    0.0 sec
Grid point division into batches done        ...    0.3 sec
Reduced shell lists constructed in    0.8 sec

Total number of grid points                  ...    85177
Total number of batches                      ...     1342
Average number of points per batch           ...       63
Average number of grid points per atom       ...     4259
Average number of shells per batch           ...    53.01 (59.56%)
Average number of basis functions per batch  ...   105.58 (57.07%)
Average number of large shells per batch     ...    39.02 (73.61%)
Average number of large basis fcns per batch ...    75.93 (71.91%)
Maximum spatial batch extension              ...  18.51, 20.30, 19.68 au
Average spatial batch extension              ...   2.34,  2.47,  2.40 au

Final grid set up in    1.1 sec
Final integration                            ... done (   1.0 sec)
Change in XC energy                          ...    -0.000330693
Integrated number of electrons               ...    80.000211872
Previous integrated no of electrons          ...    79.996278058

----------------
TOTAL SCF ENERGY
----------------

Total Energy       :         -799.52721139 Eh          -21756.24149 eV

Components:
Nuclear Repulsion  :          538.72803640 Eh           14659.53515 eV
Electronic Energy  :        -1338.25524779 Eh          -36415.77663 eV
One Electron Energy:        -2165.81043972 Eh          -58934.69825 eV
Two Electron Energy:          827.55519193 Eh           22518.92161 eV

Virial components:
Potential Energy   :        -1594.29548805 Eh          -43382.98578 eV
Kinetic Energy     :          794.76827666 Eh           21626.74429 eV
Virial Ratio       :            2.00598783


DFT components:
N(Alpha)           :       40.000105935756 electrons
N(Beta)            :       40.000105935756 electrons
N(Total)           :       80.000211871512 electrons
E(X)               :      -58.122441888198 Eh       
E(C)               :       -2.763231510824 Eh       
E(XC)              :      -60.885673399022 Eh       

---------------
SCF CONVERGENCE
---------------

  Last Energy change         ...  -1.8604e-009  Tolerance :  1.0000e-008
  Last MAX-Density change    ...   4.2844e-006  Tolerance :  1.0000e-007
  Last RMS-Density change    ...   9.4706e-008  Tolerance :  5.0000e-009
  Last Orbital Gradient      ...   8.4866e-007  Tolerance :  1.0000e-005
  Last Orbital Rotation      ...   8.1362e-007  Tolerance :  1.0000e-005

             **** THE GBW FILE WAS UPDATED (methionine.gbw) ****
             **** DENSITY FILE WAS UPDATED (methionine.scfp.tmp) ****
             **** ENERGY FILE WAS UPDATED (methionine.en.tmp) ****
----------------
ORBITAL ENERGIES
----------------

  NO   OCC          E(Eh)            E(eV) 
   0   2.0000     -89.003168     -2421.8993 
   1   2.0000     -19.264125      -524.2035 
   2   2.0000     -19.196305      -522.3580 
   3   2.0000     -14.379742      -391.2927 
   4   2.0000     -10.365885      -282.0701 
   5   2.0000     -10.290926      -280.0303 
   6   2.0000     -10.278818      -279.7009 
   7   2.0000     -10.270110      -279.4639 
   8   2.0000     -10.259070      -279.1635 
   9   2.0000      -8.003442      -217.7847 
  10   2.0000      -5.945979      -161.7983 
  11   2.0000      -5.942522      -161.7043 
  12   2.0000      -5.934784      -161.4937 
  13   2.0000      -1.120247       -30.4835 
  14   2.0000      -1.031367       -28.0649 
  15   2.0000      -0.906688       -24.6722 
  16   2.0000      -0.842091       -22.9145 
  17   2.0000      -0.780334       -21.2340 
  18   2.0000      -0.715901       -19.4806 
  19   2.0000      -0.666154       -18.1270 
  20   2.0000      -0.640783       -17.4366 
  21   2.0000      -0.612897       -16.6778 
  22   2.0000      -0.551735       -15.0135 
  23   2.0000      -0.513496       -13.9729 
  24   2.0000      -0.488823       -13.3016 
  25   2.0000      -0.480707       -13.0807 
  26   2.0000      -0.460524       -12.5315 
  27   2.0000      -0.449983       -12.2447 
  28   2.0000      -0.442720       -12.0470 
  29   2.0000      -0.432911       -11.7801 
  30   2.0000      -0.422416       -11.4945 
  31   2.0000      -0.410537       -11.1713 
  32   2.0000      -0.383697       -10.4409 
  33   2.0000      -0.375441       -10.2163 
  34   2.0000      -0.362509        -9.8644 
  35   2.0000      -0.340829        -9.2744 
  36   2.0000      -0.329672        -8.9708 
  37   2.0000      -0.288914        -7.8617 
  38   2.0000      -0.257642        -7.0108 
  39   2.0000      -0.240215        -6.5366 
  40   0.0000      -0.001359        -0.0370 
  41   0.0000       0.025982         0.7070 
  42   0.0000       0.041887         1.1398 
  43   0.0000       0.069169         1.8822 
  44   0.0000       0.075315         2.0494 
  45   0.0000       0.085351         2.3225 
  46   0.0000       0.091799         2.4980 
  47   0.0000       0.110636         3.0105 
  48   0.0000       0.117643         3.2012 
  49   0.0000       0.125764         3.4222 
  50   0.0000       0.149758         4.0751 
  51   0.0000       0.150353         4.0913 
  52   0.0000       0.160111         4.3568 
  53   0.0000       0.161495         4.3945 
  54   0.0000       0.205406         5.5894 
  55   0.0000       0.218176         5.9369 
  56   0.0000       0.223278         6.0757 
  57   0.0000       0.266964         7.2645 
  58   0.0000       0.327158         8.9024 
  59   0.0000       0.377497        10.2722 
  60   0.0000       0.390500        10.6260 
  61   0.0000       0.403366        10.9762 
  62   0.0000       0.425240        11.5714 
  63   0.0000       0.442624        12.0444 
  64   0.0000       0.449248        12.2247 
  65   0.0000       0.460208        12.5229 
  66   0.0000       0.485046        13.1988 
  67   0.0000       0.496129        13.5004 
  68   0.0000       0.504203        13.7201 
  69   0.0000       0.532672        14.4947 
  70   0.0000       0.565534        15.3890 
  71   0.0000       0.580020        15.7832 
  72   0.0000       0.598148        16.2764 
  73   0.0000       0.605248        16.4696 
  74   0.0000       0.622262        16.9326 
  75   0.0000       0.631381        17.1807 
  76   0.0000       0.645883        17.5754 
  77   0.0000       0.648278        17.6405 
  78   0.0000       0.654677        17.8147 
  79   0.0000       0.657007        17.8781 
  80   0.0000       0.668507        18.1910 
  81   0.0000       0.669694        18.2233 
  82   0.0000       0.677406        18.4332 
  83   0.0000       0.684519        18.6267 
  84   0.0000       0.690003        18.7759 
  85   0.0000       0.698843        19.0165 
  86   0.0000       0.705862        19.2075 
  87   0.0000       0.724816        19.7232 
  88   0.0000       0.738542        20.0967 
  89   0.0000       0.744984        20.2721 
  90   0.0000       0.759611        20.6701 
  91   0.0000       0.794991        21.6328 
  92   0.0000       0.834207        22.6999 
  93   0.0000       0.838185        22.8082 
  94   0.0000       0.857645        23.3377 
  95   0.0000       0.891904        24.2699 
  96   0.0000       0.908902        24.7325 
  97   0.0000       0.937293        25.5050 
  98   0.0000       0.959888        26.1199 
  99   0.0000       1.004994        27.3473 
 100   0.0000       1.011133        27.5143 
 101   0.0000       1.039579        28.2884 
 102   0.0000       1.064608        28.9695 
 103   0.0000       1.086089        29.5540 
 104   0.0000       1.122282        30.5389 
 105   0.0000       1.129712        30.7410 
 106   0.0000       1.177295        32.0358 
 107   0.0000       1.205975        32.8162 
 108   0.0000       1.220154        33.2021 
 109   0.0000       1.247246        33.9393 
 110   0.0000       1.253243        34.1025 
 111   0.0000       1.278855        34.7994 
 112   0.0000       1.324897        36.0523 
 113   0.0000       1.335027        36.3279 
 114   0.0000       1.355725        36.8912 
 115   0.0000       1.370901        37.3041 
 116   0.0000       1.380294        37.5597 
 117   0.0000       1.441628        39.2287 
 118   0.0000       1.472089        40.0576 
 119   0.0000       1.507701        41.0266 
 120   0.0000       1.577270        42.9197 
 121   0.0000       1.607700        43.7477 
 122   0.0000       1.650896        44.9232 
 123   0.0000       1.677199        45.6389 
 124   0.0000       1.706991        46.4496 
 125   0.0000       1.711110        46.5617 
 126   0.0000       1.719764        46.7971 
 127   0.0000       1.737957        47.2922 
 128   0.0000       1.746179        47.5159 
 129   0.0000       1.765977        48.0547 
 130   0.0000       1.784184        48.5501 
 131   0.0000       1.811425        49.2914 
 132   0.0000       1.829626        49.7867 
 133   0.0000       1.846859        50.2556 
 134   0.0000       1.849136        50.3176 
 135   0.0000       1.861080        50.6426 
 136   0.0000       1.879541        51.1449 
 137   0.0000       1.905635        51.8550 
 138   0.0000       1.908161        51.9237 
 139   0.0000       1.922806        52.3222 
 140   0.0000       1.935294        52.6620 
 141   0.0000       1.962005        53.3889 
 142   0.0000       1.988783        54.1175 
 143   0.0000       2.008877        54.6643 
 144   0.0000       2.022064        55.0232 
 145   0.0000       2.069063        56.3021 
 146   0.0000       2.082402        56.6650 
 147   0.0000       2.121409        57.7265 
 148   0.0000       2.145627        58.3855 
 149   0.0000       2.200234        59.8714 
 150   0.0000       2.204305        59.9822 
 151   0.0000       2.276661        61.9511 
 152   0.0000       2.298636        62.5491 
 153   0.0000       2.343522        63.7705 
 154   0.0000       2.357047        64.1385 
 155   0.0000       2.381636        64.8076 
 156   0.0000       2.403157        65.3932 
 157   0.0000       2.407344        65.5072 
 158   0.0000       2.435918        66.2847 
 159   0.0000       2.516430        68.4755 
 160   0.0000       2.551541        69.4310 
 161   0.0000       2.572439        69.9996 
 162   0.0000       2.657043        72.3018 
 163   0.0000       2.665992        72.5453 
 164   0.0000       2.715132        73.8825 
 165   0.0000       2.738860        74.5282 
 166   0.0000       2.768131        75.3247 
 167   0.0000       2.799889        76.1889 
 168   0.0000       2.828780        76.9750 
 169   0.0000       2.840169        77.2849 
 170   0.0000       2.864893        77.9577 
 171   0.0000       2.883594        78.4666 
 172   0.0000       2.912278        79.2471 
 173   0.0000       2.953583        80.3711 
 174   0.0000       2.965019        80.6823 
 175   0.0000       3.004479        81.7560 
 176   0.0000       3.044034        82.8324 
 177   0.0000       3.064494        83.3891 
 178   0.0000       3.173521        86.3559 
 179   0.0000       3.243130        88.2500 
 180   0.0000       3.287711        89.4632 
 181   0.0000       3.378666        91.9382 
 182   0.0000       3.501546        95.2819 
 183   0.0000       3.644333        99.1673 
 184   0.0000       3.820978       103.9741 

                    ********************************
                    * MULLIKEN POPULATION ANALYSIS *
                    ********************************

-----------------------
MULLIKEN ATOMIC CHARGES
-----------------------
   0 C :   -0.168577
   1 S :   -0.096821
   2 C :   -0.209137
   3 C :   -0.005268
   4 C :   -0.097175
   5 C :    0.216832
   6 O :   -0.239331
   7 O :   -0.205172
   8 N :   -0.249181
   9 H :    0.090471
  10 H :    0.084106
  11 H :    0.082161
  12 H :    0.080934
  13 H :    0.071773
  14 H :    0.076536
  15 H :    0.059209
  16 H :    0.055516
  17 H :    0.193524
  18 H :    0.132194
  19 H :    0.127405
Sum of atomic charges:   -0.0000000

--------------------------------
MULLIKEN REDUCED ORBITAL CHARGES
--------------------------------
  0 C s       :     3.125327  s :     3.125327
      pz      :     1.063270  p :     3.015725
      px      :     0.894285
      py      :     1.058171
      dz2     :     0.004977  d :     0.027524
      dxz     :     0.005171
      dyz     :     0.004357
      dx2y2   :     0.007582
      dxy     :     0.005437
  1 S s       :     5.902001  s :     5.902001
      pz      :     3.249163  p :    10.107951
      px      :     3.047114
      py      :     3.811673
      dz2     :     0.025438  d :     0.086869
      dxz     :     0.016738
      dyz     :     0.013287
      dx2y2   :     0.021698
      dxy     :     0.009708
  2 C s       :     3.133088  s :     3.133088
      pz      :     0.955556  p :     3.039175
      px      :     1.044068
      py      :     1.039551
      dz2     :     0.009012  d :     0.036874
      dxz     :     0.005906
      dyz     :     0.007597
      dx2y2   :     0.007294
      dxy     :     0.007065
  3 C s       :     3.055998  s :     3.055998
      pz      :     0.967535  p :     2.915636
      px      :     0.917910
      py      :     1.030191
      dz2     :     0.007682  d :     0.033633
      dxz     :     0.005960
      dyz     :     0.006448
      dx2y2   :     0.007496
      dxy     :     0.006047
  4 C s       :     3.102853  s :     3.102853
      pz      :     1.058420  p :     2.937278
      px      :     0.895383
      py      :     0.983475
      dz2     :     0.009636  d :     0.057044
      dxz     :     0.010145
      dyz     :     0.008473
      dx2y2   :     0.013628
      dxy     :     0.015162
  5 C s       :     3.069711  s :     3.069711
      pz      :     0.796250  p :     2.581614
      px      :     0.799944
      py      :     0.985421
      dz2     :     0.008545  d :     0.131842
      dxz     :     0.025004
      dyz     :     0.013925
      dx2y2   :     0.053666
      dxy     :     0.030702
  6 O s       :     3.764729  s :     3.764729
      pz      :     1.404743  p :     4.456523
      px      :     1.548577
      py      :     1.503203
      dz2     :     0.002025  d :     0.018078
      dxz     :     0.002530
      dyz     :     0.003251
      dx2y2   :     0.003996
      dxy     :     0.006276
  7 O s       :     3.676953  s :     3.676953
      pz      :     1.755437  p :     4.516120
      px      :     1.206810
      py      :     1.553873
      dz2     :     0.002018  d :     0.012099
      dxz     :     0.001792
      dyz     :     0.001165
      dx2y2   :     0.002358
      dxy     :     0.004766
  8 N s       :     3.449946  s :     3.449946
      pz      :     1.086892  p :     3.781728
      px      :     1.067920
      py      :     1.626916
      dz2     :     0.002938  d :     0.017507
      dxz     :     0.002890
      dyz     :     0.004299
      dx2y2   :     0.004222
      dxy     :     0.003158
  9 H s       :     0.886346  s :     0.886346
      pz      :     0.011982  p :     0.023183
      px      :     0.005751
      py      :     0.005450
 10 H s       :     0.892969  s :     0.892969
      pz      :     0.009766  p :     0.022925
      px      :     0.004765
      py      :     0.008394
 11 H s       :     0.894892  s :     0.894892
      pz      :     0.004912  p :     0.022947
      px      :     0.004214
      py      :     0.013821
 12 H s       :     0.897035  s :     0.897035
      pz      :     0.003712  p :     0.022031
      px      :     0.005103
      py      :     0.013215
 13 H s       :     0.907023  s :     0.907023
      pz      :     0.008117  p :     0.021204
      px      :     0.004990
      py      :     0.008097
 14 H s       :     0.901350  s :     0.901350
      pz      :     0.003868  p :     0.022114
      px      :     0.005331
      py      :     0.012916
 15 H s       :     0.918741  s :     0.918741
      pz      :     0.009277  p :     0.022049
      px      :     0.005026
      py      :     0.007747
 16 H s       :     0.924231  s :     0.924231
      pz      :     0.008868  p :     0.020253
      px      :     0.003151
      py      :     0.008235
 17 H s       :     0.736194  s :     0.736194
      pz      :     0.017432  p :     0.070282
      px      :     0.026815
      py      :     0.026034
 18 H s       :     0.823887  s :     0.823887
      pz      :     0.016670  p :     0.043919
      px      :     0.009753
      py      :     0.017497
 19 H s       :     0.828886  s :     0.828886
      pz      :     0.021104  p :     0.043709
      px      :     0.009607
      py      :     0.012998


                     *******************************
                     * LOEWDIN POPULATION ANALYSIS *
                     *******************************

----------------------
LOEWDIN ATOMIC CHARGES
----------------------
   0 C :   -0.178934
   1 S :    0.201061
   2 C :   -0.158420
   3 C :   -0.054471
   4 C :   -0.037136
   5 C :    0.080624
   6 O :   -0.180687
   7 O :   -0.040926
   8 N :   -0.116556
   9 H :    0.038635
  10 H :    0.028232
  11 H :    0.029016
  12 H :    0.018841
  13 H :    0.019972
  14 H :    0.042149
  15 H :    0.035935
  16 H :    0.036473
  17 H :    0.092863
  18 H :    0.071558
  19 H :    0.071773

-------------------------------
LOEWDIN REDUCED ORBITAL CHARGES
-------------------------------
  0 C s       :     2.917004  s :     2.917004
      pz      :     1.101535  p :     3.194694
      px      :     0.995901
      py      :     1.097258
      dz2     :     0.012356  d :     0.067235
      dxz     :     0.012800
      dyz     :     0.011276
      dx2y2   :     0.018282
      dxy     :     0.012520
  1 S s       :     5.573148  s :     5.573148
      pz      :     3.285555  p :    10.122128
      px      :     3.049792
      py      :     3.786781
      dz2     :     0.031010  d :     0.103663
      dxz     :     0.019359
      dyz     :     0.015697
      dx2y2   :     0.027088
      dxy     :     0.010509
  2 C s       :     2.909134  s :     2.909134
      pz      :     1.026159  p :     3.162598
      px      :     1.059127
      py      :     1.077312
      dz2     :     0.021682  d :     0.086689
      dxz     :     0.012704
      dyz     :     0.018104
      dx2y2   :     0.019111
      dxy     :     0.015089
  3 C s       :     2.857064  s :     2.857064
      pz      :     1.023848  p :     3.112133
      px      :     1.018391
      py      :     1.069894
      dz2     :     0.019588  d :     0.085274
      dxz     :     0.014951
      dyz     :     0.016379
      dx2y2   :     0.020619
      dxy     :     0.013737
  4 C s       :     2.858809  s :     2.858809
      pz      :     1.055198  p :     3.047225
      px      :     0.952804
      py      :     1.039223
      dz2     :     0.023571  d :     0.131102
      dxz     :     0.019765
      dyz     :     0.021002
      dx2y2   :     0.033218
      dxy     :     0.033546
  5 C s       :     2.873655  s :     2.873655
      pz      :     0.806618  p :     2.759086
      px      :     0.902448
      py      :     1.050020
      dz2     :     0.018710  d :     0.286635
      dxz     :     0.048765
      dyz     :     0.025119
      dx2y2   :     0.120631
      dxy     :     0.073410
  6 O s       :     3.561324  s :     3.561324
      pz      :     1.401808  p :     4.589022
      px      :     1.609232
      py      :     1.577981
      dz2     :     0.004290  d :     0.030341
      dxz     :     0.003168
      dyz     :     0.003970
      dx2y2   :     0.005884
      dxy     :     0.013029
  7 O s       :     3.407913  s :     3.407913
      pz      :     1.716241  p :     4.607972
      px      :     1.285855
      py      :     1.605876
      dz2     :     0.003976  d :     0.025040
      dxz     :     0.003502
      dyz     :     0.000843
      dx2y2   :     0.005470
      dxy     :     0.011250
  8 N s       :     3.148842  s :     3.148842
      pz      :     1.165248  p :     3.927993
      px      :     1.140004
      py      :     1.622741
      dz2     :     0.008283  d :     0.039721
      dxz     :     0.008512
      dyz     :     0.008302
      dx2y2   :     0.009139
      dxy     :     0.005485
  9 H s       :     0.893977  s :     0.893977
      pz      :     0.034237  p :     0.067388
      px      :     0.018854
      py      :     0.014297
 10 H s       :     0.903970  s :     0.903970
      pz      :     0.028339  p :     0.067798
      px      :     0.016204
      py      :     0.023254
 11 H s       :     0.903224  s :     0.903224
      pz      :     0.013116  p :     0.067760
      px      :     0.014191
      py      :     0.040453
 12 H s       :     0.909696  s :     0.909696
      pz      :     0.013137  p :     0.071463
      px      :     0.017455
      py      :     0.040871
 13 H s       :     0.911278  s :     0.911278
      pz      :     0.029280  p :     0.068750
      px      :     0.016793
      py      :     0.022677
 14 H s       :     0.891274  s :     0.891274
      pz      :     0.012508  p :     0.066577
      px      :     0.016337
      py      :     0.037732
 15 H s       :     0.898005  s :     0.898005
      pz      :     0.028194  p :     0.066061
      px      :     0.015873
      py      :     0.021993
 16 H s       :     0.897610  s :     0.897610
      pz      :     0.027099  p :     0.065917
      px      :     0.013091
      py      :     0.025727
 17 H s       :     0.724925  s :     0.724925
      pz      :     0.047356  p :     0.182211
      px      :     0.061823
      py      :     0.073032
 18 H s       :     0.813295  s :     0.813295
      pz      :     0.039012  p :     0.115147
      px      :     0.025280
      py      :     0.050855
 19 H s       :     0.813490  s :     0.813490
      pz      :     0.053936  p :     0.114737
      px      :     0.024566
      py      :     0.036234


                      *****************************
                      * MAYER POPULATION ANALYSIS *
                      *****************************

  NA   - Mulliken gross atomic population
  ZA   - Total nuclear charge
  QA   - Mulliken gross atomic charge
  VA   - Mayer's total valence
  BVA  - Mayer's bonded valence
  FA   - Mayer's free valence

  ATOM       NA         ZA         QA         VA         BVA        FA
  0 C      6.1686     6.0000    -0.1686     3.9197     3.9197    -0.0000
  1 S     16.0968    16.0000    -0.0968     2.0738     2.0738     0.0000
  2 C      6.2091     6.0000    -0.2091     3.9417     3.9417     0.0000
  3 C      6.0053     6.0000    -0.0053     3.9326     3.9326    -0.0000
  4 C      6.0972     6.0000    -0.0972     3.9732     3.9732    -0.0000
  5 C      5.7832     6.0000     0.2168     4.2263     4.2263     0.0000
  6 O      8.2393     8.0000    -0.2393     2.2462     2.2462    -0.0000
  7 O      8.2052     8.0000    -0.2052     2.2051     2.2051     0.0000
  8 N      7.2492     7.0000    -0.2492     3.0769     3.0769    -0.0000
  9 H      0.9095     1.0000     0.0905     0.9797     0.9797     0.0000
 10 H      0.9159     1.0000     0.0841     0.9734     0.9734     0.0000
 11 H      0.9178     1.0000     0.0822     0.9770     0.9770    -0.0000
 12 H      0.9191     1.0000     0.0809     0.9869     0.9869    -0.0000
 13 H      0.9282     1.0000     0.0718     0.9661     0.9661     0.0000
 14 H      0.9235     1.0000     0.0765     0.9896     0.9896    -0.0000
 15 H      0.9408     1.0000     0.0592     0.9888     0.9888    -0.0000
 16 H      0.9445     1.0000     0.0555     0.9768     0.9768     0.0000
 17 H      0.8065     1.0000     0.1935     1.0145     1.0145     0.0000
 18 H      0.8678     1.0000     0.1322     1.0014     1.0014     0.0000
 19 H      0.8726     1.0000     0.1274     0.9948     0.9948    -0.0000

  Mayer bond orders larger than 0.1
B(  0-C ,  1-S ) :   1.0102 B(  0-C ,  9-H ) :   0.9700 B(  0-C , 10-H ) :   0.9638 
B(  0-C , 11-H ) :   0.9628 B(  1-S ,  2-C ) :   1.0162 B(  2-C ,  3-C ) :   1.0327 
B(  2-C , 12-H ) :   0.9287 B(  2-C , 13-H ) :   0.9384 B(  3-C ,  4-C ) :   1.0473 
B(  3-C , 14-H ) :   0.9396 B(  3-C , 15-H ) :   0.9364 B(  4-C ,  5-C ) :   0.8849 
B(  4-C ,  8-N ) :   1.1196 B(  4-C , 16-H ) :   0.9131 B(  5-C ,  6-O ) :   2.1176 
B(  5-C ,  7-O ) :   1.1606 B(  7-O , 17-H ) :   0.9366 B(  8-N , 18-H ) :   0.9550 
B(  8-N , 19-H ) :   0.9571 

-------
TIMINGS
-------

Total SCF time: 0 days 0 hours 0 min 55 sec 

Total time                  ....      55.583 sec
Sum of individual times     ....      55.490 sec  ( 99.8%)

Fock matrix formation       ....      53.781 sec  ( 96.8%)
  XC integration            ....       4.269 sec  (  7.9% of F)
    Basis function eval.    ....       1.364 sec  ( 32.0% of XC)
    Density eval.           ....       1.071 sec  ( 25.1% of XC)
    XC-Functional eval.     ....       0.178 sec  (  4.2% of XC)
    XC-Potential eval.      ....       1.430 sec  ( 33.5% of XC)
Diagonalization             ....       0.023 sec  (  0.0%)
Density matrix formation    ....       0.003 sec  (  0.0%)
Population analysis         ....       0.028 sec  (  0.1%)
Initial guess               ....       0.333 sec  (  0.6%)
Orbital Transformation      ....       0.000 sec  (  0.0%)
Orbital Orthonormalization  ....       0.000 sec  (  0.0%)
DIIS solution               ....       0.018 sec  (  0.0%)
SOSCF solution              ....       0.022 sec  (  0.0%)
Grid generation             ....       1.282 sec  (  2.3%)

-------------------------   --------------------
FINAL SINGLE POINT ENERGY      -799.527211386689
-------------------------   --------------------

------------------------------------------------------------------------------
                         ORCA SCF GRADIENT CALCULATION
------------------------------------------------------------------------------

Gradient of the Kohn-Sham DFT energy:
Kohn-Sham wavefunction type      ... RKS
Hartree-Fock exchange scaling    ...    0.250
Number of operators              ...    1
Number of atoms                  ...   20
Basis set dimensions             ...  185
Integral neglect threshold       ... 2.5e-011
Integral primitive cutoff        ... 2.5e-012

Nuclear repulsion gradient       ... done
One Electron Gradient            
  ECP gradient                   ... done
Pre-screening matrix             ... done
Starting the two electron gradient:
Two electron gradient done
Exchange-correlation gradient    ... done

------------------
CARTESIAN GRADIENT
------------------

   1   C   :    0.002005311   -0.003217277    0.008820468
   2   S   :    0.010332520    0.004976937   -0.009578978
   3   C   :   -0.013034622    0.000871140    0.002761310
   4   C   :    0.004004722   -0.004556367   -0.002007787
   5   C   :   -0.016713355   -0.005284552    0.007509172
   6   C   :   -0.019751044    0.027915611   -0.011691343
   7   O   :    0.029648477   -0.023764232    0.005627818
   8   O   :   -0.000359969    0.010416430   -0.000527431
   9   N   :    0.001007746    0.004414240   -0.005664206
  10   H   :   -0.003618873    0.000554697   -0.005200571
  11   H   :   -0.000813925    0.006130109    0.003399171
  12   H   :   -0.001208864   -0.006705248   -0.001371358
  13   H   :    0.003335528   -0.005638808   -0.001973682
  14   H   :    0.001959044    0.005416440    0.003474334
  15   H   :   -0.001624616    0.008971072   -0.001149340
  16   H   :    0.000442119   -0.003950341   -0.005097376
  17   H   :    0.000803653    0.002036887    0.003556860
  18   H   :   -0.013645272   -0.008281080    0.005211670
  19   H   :    0.010226534   -0.009977564   -0.020391307
  20   H   :    0.007004885   -0.000328095    0.024292576

Difference to translation invariance:
           :   -0.0000000000   -0.0000000000    0.0000000000

Norm of the cartesian gradient     ...    0.0758728725
RMS gradient                       ...    0.0097951457
MAX gradient                       ...    0.0296484766

-------
TIMINGS
-------

Total SCF gradient time            ...       25.582 sec

One electron gradient       ....       0.173 sec  (  0.7%)
Prescreening matrices       ....       0.091 sec  (  0.4%)
Two electron gradient       ....      19.108 sec  ( 74.7%)
XC gradient                 ....       6.090 sec  ( 23.8%)
------------------------------------------------------------------------------
                         ORCA GEOMETRY RELAXATION STEP
------------------------------------------------------------------------------

Reading the OPT-File                    .... done
Getting information on internals        .... done
Copying old internal coords+grads       .... done
Making the new internal coordinates     .... (new redundants).... done
Validating the new internal coordinates .... (new redundants).... done
Calculating the B-matrix                .... done
Calculating the G,G- and P matrices     .... done
Transforming gradient to internals      .... done
Projecting the internal gradient        .... done
Number of atoms                         ....  20
Number of internal coordinates          ....  89
Current Energy                          ....  -799.527211387 Eh
Current gradient norm                   ....     0.075872872 Eh/bohr
Maximum allowed component of the step   ....  0.300
Current trust radius                    ....  0.300
Evaluating the initial hessian          ....  (Almloef) done
Projecting the Hessian                  .... done
Forming the augmented Hessian           .... done
Diagonalizing the augmented Hessian     .... done
Last element of RFO vector              ....  0.967943777
Lowest eigenvalues of augmented Hessian:
 -0.013654928  0.003352617  0.003442933  0.009893221  0.010910499
Length of the computed step             ....  0.259485078
The final length of the internal step   ....  0.259485078
Converting the step to cartesian space:
 Initial RMS(Int)=    0.0275053633
Transforming coordinates:
 Iter   0:  RMS(Cart)=    0.0610593068 RMS(Int)=    0.0276896527
 Iter   1:  RMS(Cart)=    0.0021935675 RMS(Int)=    0.0017329819
 Iter   2:  RMS(Cart)=    0.0002409758 RMS(Int)=    0.0001260139
 Iter   3:  RMS(Cart)=    0.0000254981 RMS(Int)=    0.0000202052
 Iter   4:  RMS(Cart)=    0.0000032605 RMS(Int)=    0.0000018929
 Iter   5:  RMS(Cart)=    0.0000003675 RMS(Int)=    0.0000002756
 Iter   6:  RMS(Cart)=    0.0000000466 RMS(Int)=    0.0000000299
done
Storing new coordinates                 .... done

                                .--------------------.
          ----------------------|Geometry convergence|-------------------------
          Item                value                   Tolerance       Converged
          ---------------------------------------------------------------------
          RMS gradient        0.0079551183            0.0001000000      NO
          MAX gradient        0.0377836048            0.0003000000      NO
          RMS step            0.0275053633            0.0020000000      NO
          MAX step            0.0825318718            0.0040000000      NO
          ........................................................
          Max(Bonds)      0.0331      Max(Angles)    4.43
          Max(Dihed)        4.73      Max(Improp)    0.00
          ---------------------------------------------------------------------

The optimization has not yet converged - more geometry cycles are needed


    ---------------------------------------------------------------------------
                         Redundant Internal Coordinates
                            (Angstroem and degrees)

        Definition                    Value    dE/dq     Step     New-Value
    ----------------------------------------------------------------------------
     1. B(S   1,C   0)                1.8207  0.004608 -0.0068    1.8140   
     2. B(C   2,S   1)                1.8250  0.002627 -0.0039    1.8210   
     3. B(C   3,C   2)                1.5307  0.001124 -0.0015    1.5291   
     4. B(C   4,C   3)                1.5475  0.007353 -0.0107    1.5368   
     5. B(C   5,C   4)                1.5243 -0.004904  0.0066    1.5309   
     6. B(O   6,C   5)                1.2215  0.037784 -0.0190    1.2026   
     7. B(O   7,C   5)                1.3504  0.014000 -0.0112    1.3392   
     8. B(N   8,C   4)                1.4670  0.017856 -0.0217    1.4453   
     9. B(H   9,C   0)                1.1093  0.006213 -0.0094    1.0999   
    10. B(H  10,C   0)                1.1098  0.006439 -0.0098    1.1000   
    11. B(H  11,C   0)                1.1100  0.006446 -0.0098    1.1002   
    12. B(H  12,C   2)                1.1074  0.003855 -0.0058    1.1016   
    13. B(H  13,C   2)                1.1117  0.004969 -0.0076    1.1041   
    14. B(H  14,C   3)                1.1129  0.007841 -0.0120    1.1008   
    15. B(H  15,C   3)                1.1123  0.006162 -0.0094    1.1029   
    16. B(H  16,C   4)                1.1123  0.003520 -0.0054    1.1069   
    17. B(H  17,O   7)                0.9666  0.003815 -0.0039    0.9627   
    18. B(H  18,N   8)                1.0466  0.024054 -0.0325    1.0142   
    19. B(H  19,N   8)                1.0462  0.024510 -0.0331    1.0132   
    20. A(S   1,C   0,H  11)          110.63 -0.000237    0.01    110.64   
    21. A(H   9,C   0,H  11)          107.34 -0.001757    0.47    107.81   
    22. A(H  10,C   0,H  11)          111.75  0.003289   -0.81    110.95   
    23. A(S   1,C   0,H   9)          108.34  0.001049   -0.08    108.25   
    24. A(H   9,C   0,H  10)          108.23 -0.000318    0.14    108.37   
    25. A(S   1,C   0,H  10)          110.42 -0.002065    0.29    110.71   
    26. A(C   0,S   1,C   2)           94.69 -0.021266    3.01     97.70   
    27. A(S   1,C   2,H  12)          108.01  0.001562   -0.14    107.86   
    28. A(H  12,C   2,H  13)          111.83  0.004041   -1.38    110.45   
    29. A(C   3,C   2,H  13)          109.15 -0.002290    0.50    109.66   
    30. A(S   1,C   2,H  13)          109.25  0.001741   -0.41    108.84   
    31. A(C   3,C   2,H  12)          109.20 -0.004019    1.02    110.22   
    32. A(S   1,C   2,C   3)          109.37 -0.001082    0.43    109.80   
    33. A(C   2,C   3,C   4)          115.27 -0.001860    0.47    115.74   
    34. A(C   4,C   3,H  15)          109.48  0.001393   -0.48    109.00   
    35. A(C   2,C   3,H  15)          108.79 -0.000226    0.17    108.97   
    36. A(C   4,C   3,H  14)          107.28  0.002758   -0.58    106.71   
    37. A(C   2,C   3,H  14)          107.69 -0.002684    0.94    108.63   
    38. A(H  14,C   3,H  15)          108.09  0.000735   -0.58    107.51   
    39. A(N   8,C   4,H  16)          107.35  0.001076   -0.15    107.20   
    40. A(C   5,C   4,H  16)          107.84  0.000349   -0.40    107.45   
    41. A(C   3,C   4,H  16)          109.04  0.000038   -0.66    108.39   
    42. A(C   5,C   4,N   8)          110.76 -0.004849    1.48    112.24   
    43. A(C   3,C   4,N   8)          108.08 -0.000154    0.33    108.41   
    44. A(C   3,C   4,C   5)          113.58  0.003497   -0.62    112.96   
    45. A(O   6,C   5,O   7)          118.39 -0.002003    0.38    118.77   
    46. A(C   4,C   5,O   7)          121.15  0.016172   -2.08    119.08   
    47. A(C   4,C   5,O   6)          120.36 -0.014315    1.99    122.35   
    48. A(C   5,O   7,H  17)          122.41  0.029761   -4.43    117.98   
    49. A(C   4,N   8,H  19)          109.97 -0.001303   -0.44    109.52   
    50. A(C   4,N   8,H  18)          110.69  0.004101   -1.34    109.36   
    51. A(H  18,N   8,H  19)          109.05  0.003267   -2.03    107.02   
    52. D(C   2,S   1,C   0,H   9)   -174.94  0.000664   -1.54   -176.48   
    53. D(C   2,S   1,C   0,H  11)    -57.54 -0.000971   -1.01    -58.55   
    54. D(C   2,S   1,C   0,H  10)     66.70  0.001612   -1.83     64.87   
    55. D(H  12,C   2,S   1,C   0)     58.09  0.003792   -1.05     57.04   
    56. D(C   3,C   2,S   1,C   0)    176.83 -0.000737    0.33    177.16   
    57. D(H  13,C   2,S   1,C   0)    -63.75 -0.003128    0.96    -62.79   
    58. D(H  15,C   3,C   2,H  12)     57.47 -0.000204    0.11     57.59   
    59. D(C   4,C   3,C   2,S   1)    176.10  0.000558   -0.40    175.70   
    60. D(H  15,C   3,C   2,S   1)    -60.52  0.000880   -0.56    -61.08   
    61. D(H  14,C   3,C   2,S   1)     56.41  0.000170   -0.64     55.77   
    62. D(C   4,C   3,C   2,H  13)     56.62  0.000460   -0.46     56.16   
    63. D(H  15,C   3,C   2,H  13)    180.00  0.000783   -0.62    179.38   
    64. D(H  14,C   3,C   2,H  13)    -63.08  0.000072   -0.70    -63.78   
    65. D(C   4,C   3,C   2,H  12)    -65.90 -0.000527    0.28    -65.63   
    66. D(H  14,C   3,C   2,H  12)    174.40 -0.000914    0.03    174.43   
    67. D(H  16,C   4,C   3,H  15)    177.59  0.000536    0.29    177.88   
    68. D(H  16,C   4,C   3,C   2)    -59.40 -0.000014    0.48    -58.92   
    69. D(N   8,C   4,C   3,H  15)     61.19 -0.000676    0.64     61.83   
    70. D(N   8,C   4,C   3,H  14)    -55.88 -0.003820    1.90    -53.97   
    71. D(N   8,C   4,C   3,C   2)   -175.80 -0.001226    0.83   -174.96   
    72. D(C   5,C   4,C   3,H  15)    -62.13  0.003297   -1.08    -63.21   
    73. D(H  16,C   4,C   3,H  14)     60.52 -0.002608    1.55     62.08   
    74. D(C   5,C   4,C   3,H  14)   -179.19  0.000153    0.18   -179.01   
    75. D(C   5,C   4,C   3,C   2)     60.89  0.002747   -0.89     60.00   
    76. D(O   7,C   5,C   4,H  16)     50.81  0.000350    0.95     51.77   
    77. D(O   7,C   5,C   4,N   8)    168.01 -0.000846    1.36    169.38   
    78. D(O   7,C   5,C   4,C   3)    -70.15 -0.002172    2.46    -67.69   
    79. D(O   6,C   5,C   4,H  16)   -125.59  0.003197   -4.73   -130.32   
    80. D(O   6,C   5,C   4,N   8)     -8.39  0.002001   -4.32    -12.71   
    81. D(O   6,C   5,C   4,C   3)    113.44  0.000675   -3.22    110.22   
    82. D(H  17,O   7,C   5,C   4)     -4.33  0.000542   -1.43     -5.76   
    83. D(H  17,O   7,C   5,O   6)    172.14 -0.002700    4.20    176.35   
    84. D(H  19,N   8,C   4,H  16)     58.05 -0.003577    2.00     60.05   
    85. D(H  19,N   8,C   4,C   5)    -59.45 -0.001966    1.75    -57.70   
    86. D(H  19,N   8,C   4,C   3)    175.54 -0.003041    1.32    176.86   
    87. D(H  18,N   8,C   4,H  16)    178.61  0.002297   -1.68    176.93   
    88. D(H  18,N   8,C   4,C   5)     61.11  0.003908   -1.93     59.18   
    89. D(H  18,N   8,C   4,C   3)    -63.90  0.002832   -2.36    -66.26   
    ----------------------------------------------------------------------------

         *************************************************************
         *                GEOMETRY OPTIMIZATION CYCLE   2            *
         *************************************************************
---------------------------------
CARTESIAN COORDINATES (ANGSTROEM)
---------------------------------
  C      1.033489    0.003740    0.095273
  S      2.833451    0.165780   -0.060700
  C      3.282650   -0.534881    1.559012
  C      4.804680   -0.594879    1.693306
  C      5.336359   -1.070907    3.054415
  C      4.871233   -2.483983    3.415701
  O      5.624485   -3.421040    3.441481
  O      3.573784   -2.694741    3.672015
  N      6.776948   -0.954024    3.047933
  H      0.574922    0.331820   -0.849104
  H      0.654094    0.643663    0.905555
  H      0.751428   -1.046989    0.259094
  H      2.854986   -1.548350    1.618942
  H      2.864738    0.107641    2.353750
  H      5.212125    0.414650    1.530055
  H      5.208987   -1.247826    0.901744
  H      4.955845   -0.386340    3.836559
  H      2.989344   -1.930332    3.702078
  H      7.163775   -1.607079    2.375331
  H      7.141507   -1.214643    3.956622

----------------------------
CARTESIAN COORDINATES (A.U.)
----------------------------
  NO LB      ZA    FRAG     MASS         X           Y           Z
   0 C     6.0000    0    12.011    1.953012    0.007068    0.180039
   1 S    16.0000    0    32.060    5.354447    0.313279   -0.114707
   2 C     6.0000    0    12.011    6.203309   -1.010779    2.946106
   3 C     6.0000    0    12.011    9.079530   -1.124159    3.199884
   4 C     6.0000    0    12.011   10.084257   -2.023721    5.772008
   5 C     6.0000    0    12.011    9.205296   -4.694047    6.454740
   6 O     8.0000    0    15.999   10.628736   -6.464829    6.503456
   7 O     8.0000    0    15.999    6.753473   -5.092322    6.939102
   8 N     7.0000    0    14.007   12.806577   -1.802844    5.759759
   9 H     1.0000    0     1.008    1.086444    0.627050   -1.604573
  10 H     1.0000    0     1.008    1.236059    1.216347    1.711250
  11 H     1.0000    0     1.008    1.419993   -1.978523    0.489616
  12 H     1.0000    0     1.008    5.395141   -2.925957    3.059357
  13 H     1.0000    0     1.008    5.413570    0.203412    4.447942
  14 H     1.0000    0     1.008    9.849490    0.783576    2.891385
  15 H     1.0000    0     1.008    9.843559   -2.358050    1.704049
  16 H     1.0000    0     1.008    9.365189   -0.730077    7.250045
  17 H     1.0000    0     1.008    5.649041   -3.647799    6.995913
  18 H     1.0000    0     1.008   13.537574   -3.036940    4.488726
  19 H     1.0000    0     1.008   13.495492   -2.295343    7.476931

--------------------------------
INTERNAL COORDINATES (ANGSTROEM)
--------------------------------
 C      0   0   0     0.000000000000     0.00000000     0.00000000
 S      1   0   0     1.813959119424     0.00000000     0.00000000
 C      2   1   0     1.821036432295    97.69614780     0.00000000
 C      3   2   1     1.529121014188   109.80009782   177.16285014
 C      4   3   2     1.536848666369   115.73975411   175.70434128
 C      5   4   3     1.530899526679   112.94228863    60.00019282
 O      6   5   4     1.202551320448   122.27623840   110.20287499
 O      6   5   4     1.339212167786   118.99809403   292.31924677
 N      5   4   3     1.445337834767   108.40891344   185.03654279
 H      1   2   3     1.099894351478   108.25399554   183.52162224
 H      1   2   3     1.099999402674   110.70853776    64.87204443
 H      1   2   3     1.100194796809   110.64103728   301.45037933
 H      3   2   1     1.101638389795   107.85394745    57.04431482
 H      3   2   1     1.104125287185   108.84111161   297.20189412
 H      4   3   2     1.100823537938   108.62688935    55.76133594
 H      4   3   2     1.102893286217   108.97070246   298.91887711
 H      5   4   3     1.106874786804   108.38042843   301.08315609
 H      8   6   5     0.962701564725   117.98036348   354.27110813
 H      9   5   4     1.014154674251   109.33400239   293.74506029
 H      9   5   4     1.013183001004   109.50010256   176.84401941

---------------------------
INTERNAL COORDINATES (A.U.)
---------------------------
 C      0   0   0     0.000000000000     0.00000000     0.00000000
 S      1   0   0     3.427885953840     0.00000000     0.00000000
 C      2   1   0     3.441260136930    97.69614780     0.00000000
 C      3   2   1     2.889619942438   109.80009782   177.16285014
 C      4   3   2     2.904223088720   115.73975411   175.70434128
 C      5   4   3     2.892980843974   112.94228863    60.00019282
 O      6   5   4     2.272492657632   122.27623840   110.20287499
 O      6   5   4     2.530744232330   118.99809403   292.31924677
 N      5   4   3     2.731292678705   108.40891344   185.03654279
 H      1   2   3     2.078499100541   108.25399554   183.52162224
 H      1   2   3     2.078697618530   110.70853776    64.87204443
 H      1   2   3     2.079066859935   110.64103728   301.45037933
 H      3   2   1     2.081794855327   107.85394745    57.04431482
 H      3   2   1     2.086494410317   108.84111161   297.20189412
 H      4   3   2     2.080255008477   108.62688935    55.76133594
 H      4   3   2     2.084166265891   108.97070246   298.91887711
 H      5   4   3     2.091690211602   108.38042843   301.08315609
 H      8   6   5     1.819242306028   117.98036348   354.27110813
 H      9   5   4     1.916474591771   109.33400239   293.74506029
 H      9   5   4     1.914638395441   109.50010256   176.84401941


Diagonalization of the overlap matrix:
Smallest eigenvalue                        ... 1.327e-003
Time for diagonalization                   ...    0.008 sec
Threshold for overlap eigenvalues          ... 1.000e-008
Number of eigenvalues below threshold      ... 0
Time for construction of square roots      ...    0.003 sec
Total time needed                          ...    0.011 sec

-------------------
DFT GRID GENERATION
-------------------

General Integration Accuracy     IntAcc      ...  4.340
Radial Grid Type                 RadialGrid  ... Gauss-Chebyshev
Angular Grid (max. acc.)         AngularGrid ... Lebedev-110
Angular grid pruning method      GridPruning ... 3 (G Style)
Weight generation scheme         WeightScheme... Becke
Basis function cutoff            BFCut       ...   1.0000e-011
Integration weight cutoff        WCut        ...   1.0000e-014
Grids for H and He will be reduced by one unit

# of grid points (after initial pruning)     ...  23954 (   0.0 sec)
# of grid points (after weights+screening)   ...  22076 (   0.1 sec)
nearest neighbour list constructed           ...    0.0 sec
Grid point re-assignment to atoms done       ...    0.0 sec
Grid point division into batches done        ...    0.0 sec
Reduced shell lists constructed in    0.2 sec

Total number of grid points                  ...    22076
Total number of batches                      ...      355
Average number of points per batch           ...       62
Average number of grid points per atom       ...     1104
Average number of shells per batch           ...    58.11 (65.29%)
Average number of basis functions per batch  ...   116.90 (63.19%)
Average number of large shells per batch     ...    43.57 (74.98%)
Average number of large basis fcns per batch ...    85.92 (73.50%)
Maximum spatial batch extension              ...  18.64, 20.05, 21.15 au
Average spatial batch extension              ...   3.65,  3.66,  3.65 au

Time for grid setup =    0.304 sec

--------------
SCF ITERATIONS
--------------
ITER       Energy         Delta-E        Max-DP      RMS-DP      [F,P]     Damp
               ***  Starting incremental Fock matrix formation  ***
  0   -799.5268573252   0.000000000000 0.00965816  0.00025176  0.0305871 0.7000
                      *** Initiating the SOSCF procedure ***
                      *** Re-Reading the Fockian *** 
                      *** Removing any level shift *** 
ITER      Energy       Delta-E        Grad      Rot      Max-DP    RMS-DP
  1   -799.52906873  -0.0022114084  0.001897  0.001897  0.027558  0.000745
               *** Restarting incremental Fock matrix formation ***
  2   -799.53484068  -0.0057719466  0.001337  0.003726  0.006789  0.000198
  3   -799.53497505  -0.0001343660  0.001132  0.001598  0.003756  0.000102
  4   -799.53503246  -0.0000574152  0.000700  0.001359  0.002043  0.000049
  5   -799.53503766  -0.0000051986  0.000631  0.000687  0.001145  0.000029
  6   -799.53504257  -0.0000049132  0.000137  0.000269  0.000486  0.000016
  7   -799.53504380  -0.0000012288  0.000052  0.000058  0.000328  0.000006
  8   -799.53504396  -0.0000001567  0.000026  0.000036  0.000086  0.000003
  9   -799.53504400  -0.0000000374  0.000010  0.000014  0.000047  0.000001
 10   -799.53504400  -0.0000000053  0.000007  0.000005  0.000023  0.000001
                  ***Gradient check signals convergence***
              ***Rediagonalizing the Fockian in SOSCF/NRSCF***

               *****************************************************
               *                     SUCCESS                       *
               *           SCF CONVERGED AFTER  11 CYCLES          *
               *****************************************************

Setting up the final grid:

General Integration Accuracy     IntAcc      ...  4.670
Radial Grid Type                 RadialGrid  ... Gauss-Chebyshev
Angular Grid (max. acc.)         AngularGrid ... Lebedev-302
Angular grid pruning method      GridPruning ... 3 (G Style)
[...]
     29      -0.000831   0.013335  -0.013353  -0.394848   0.007691  -0.005084
     30       0.001472   0.013132  -0.012663  -0.236174   0.003039  -0.023248
     31       0.003649  -0.014618   0.014379   0.323503  -0.005366   0.027508
     32      -0.000500  -0.020233   0.019816   0.486497  -0.008617   0.042783
     33       0.002416   0.005724  -0.005789  -0.141959   0.001369   0.012965
     34      -0.001904   0.018903  -0.019405  -0.603606   0.009427   0.036411
     35      -0.003977   0.000103   0.000000   0.028712  -0.000897  -0.000912
     36      -0.001031   0.125789  -0.120231   0.005642  -0.027183   0.347690
     37       0.003312   0.304726  -0.290503   0.008439  -0.061869   0.783502
     38      -0.025867  -0.001693   0.001635   0.002363   0.001966  -0.033642
     39       0.002320   0.248439  -0.236909   0.021661  -0.024663  -0.169206
     40       0.006482  -0.372268   0.349304  -0.029496   0.035605   0.229869
     41      -0.010306  -0.467250   0.436869  -0.034249   0.043687   0.305949
     42       0.009884  -0.007600   0.007482  -0.004276  -0.220932  -0.092206
     43       0.015614  -0.014295   0.024844  -0.008903  -0.530285  -0.219496
     44       0.049103   0.001990  -0.002090   0.000931   0.080044   0.039929
     45       0.005049   0.009278   0.052394  -0.006845  -0.289157   0.047279
     46      -0.045888  -0.013637  -0.087005   0.011078   0.492354  -0.076541
     47       0.029327  -0.013878  -0.098359   0.012207   0.560637  -0.095716
     48       0.058703  -0.254825  -0.262764  -0.000319  -0.035662   0.004178
     49       0.137940   0.415276   0.430842   0.000402   0.058544  -0.006816
     50      -0.076129   0.476434   0.499124   0.000329   0.070121  -0.006674
     51      -0.319699  -0.005480  -0.007234   0.000379  -0.001274  -0.002257
     52      -0.159013  -0.002613   0.002003   0.000077  -0.000467   0.002987
     53       0.136481  -0.002908   0.004086  -0.000441   0.001133  -0.000064
     54      -0.032607   0.001301   0.000563  -0.000018  -0.002140   0.000078
     55      -0.039687  -0.009854  -0.009536  -0.000026   0.000033   0.000325
     56       0.029935  -0.004959  -0.005660  -0.000112  -0.003053   0.000542
     57       0.006411   0.002026   0.002752   0.000002  -0.001863  -0.000119
     58      -0.032664   0.001746   0.001606  -0.000057   0.000281  -0.000704
     59      -0.007678  -0.001764  -0.002910   0.000035   0.000178   0.000104
                 54         55         56         57         58         59    
      0       0.000738  -0.007670   0.010233  -0.000006  -0.000001  -0.000011
      1      -0.006260   0.084237  -0.042391  -0.000001   0.000008   0.000026
      2      -0.003131   0.043893   0.082725  -0.000005  -0.000010   0.000028
      3      -0.000064   0.000011   0.000017  -0.000008  -0.000007   0.000010
      4       0.000021  -0.000127  -0.000042  -0.000001  -0.000006  -0.000025
      5      -0.000036  -0.000076   0.000091  -0.000001   0.000006  -0.000019
      6      -0.003089  -0.000943  -0.000085   0.000068   0.000081  -0.000138
      7      -0.023993  -0.007770   0.000250  -0.000033   0.000054   0.000479
      8      -0.007922  -0.002679  -0.000301  -0.000093  -0.000033   0.000442
      9      -0.008045  -0.000388   0.000051  -0.000016  -0.000076  -0.000034
     10      -0.086782  -0.005002   0.000220  -0.000076   0.000005   0.000005
     11      -0.022380  -0.001364  -0.000130   0.000152   0.000293  -0.000147
     12       0.001722   0.000093  -0.000017   0.000929   0.001297  -0.000542
     13      -0.004100  -0.000211   0.000003   0.002420  -0.000230   0.000398
     14      -0.003875  -0.000204  -0.000005   0.000393  -0.001521   0.000431
     15      -0.000022  -0.000019  -0.000019   0.000256  -0.000083   0.000518
     16       0.000189   0.000022  -0.000022   0.000126  -0.000005  -0.002906
     17      -0.000444  -0.000033   0.000021   0.000109   0.000226  -0.000346
     18      -0.000064  -0.000008   0.000010   0.000176  -0.000019  -0.000701
     19       0.000216   0.000006   0.000001  -0.000000  -0.000088   0.000995
     20       0.000117   0.000002  -0.000001   0.000014  -0.000063   0.000317
     21       0.000080   0.000021   0.000023   0.000039   0.000025   0.026181
     22      -0.000176  -0.000023   0.000013  -0.000013   0.000120  -0.055004
     23       0.000130   0.000024  -0.000000  -0.000085  -0.000031  -0.012703
     24      -0.000017  -0.000001   0.000001  -0.038388  -0.004965   0.000066
     25       0.000321   0.000014   0.000003   0.044101  -0.017967  -0.000290
     26       0.000069   0.000000  -0.000008  -0.002715  -0.077417  -0.000142
     27      -0.000171  -0.011980  -0.319411   0.000018  -0.000055   0.000067
     28      -0.000367   0.025288   0.337139  -0.000025  -0.000010  -0.000027
     29      -0.001224  -0.017856  -0.755361   0.000038   0.000021  -0.000062
     30      -0.021966   0.272498   0.118304   0.000005  -0.000006   0.000126
     31       0.026798  -0.348226  -0.161974   0.000000   0.000011  -0.000186
     32       0.041919  -0.547081  -0.222821  -0.000018   0.000033  -0.000054
     33       0.014277  -0.169204   0.083295   0.000023  -0.000024  -0.000019
     34       0.049753  -0.673855   0.328849   0.000020  -0.000021  -0.000005
     35      -0.002778   0.045654  -0.004682  -0.000019   0.000019  -0.000001
     36       0.096383   0.031232  -0.002463  -0.000084  -0.000346  -0.001018
     37       0.208272   0.064532  -0.001626  -0.000116  -0.000337  -0.001302
     38      -0.006953  -0.000370  -0.000887  -0.000024  -0.000008  -0.000288
     39      -0.058319  -0.020412  -0.001486   0.000060  -0.000363   0.002159
     40       0.077554   0.026424   0.000609   0.000266   0.000137  -0.003779
     41       0.099678   0.031035  -0.000384   0.000523   0.000018  -0.003342
     42       0.305930   0.016902  -0.000500  -0.000219   0.000531  -0.000167
     43       0.702288   0.039020  -0.001941  -0.000392  -0.000360  -0.000519
     44      -0.122485  -0.006787   0.000389   0.000085   0.000168   0.000497
     45      -0.206551  -0.011764   0.000276  -0.000407   0.000823   0.000365
     46       0.331729   0.019308  -0.000041   0.000704  -0.000173   0.000118
     47       0.393765   0.022700   0.000101  -0.000452   0.001013  -0.000089
     48      -0.020217  -0.001056   0.000004   0.003281  -0.004460  -0.000077
     49       0.037130   0.002052  -0.000007  -0.005858   0.004817  -0.001535
     50       0.045726   0.002730   0.000052  -0.007159   0.008280  -0.002467
     51      -0.001585  -0.000208  -0.000145  -0.001117   0.001178  -0.404740
     52       0.001347   0.000184  -0.000165   0.001337  -0.002171   0.890646
     53       0.000193   0.000063   0.000018   0.000591  -0.000636   0.197484
     54      -0.002367  -0.000169   0.000000   0.309825  -0.228581  -0.000567
     55      -0.000743  -0.000028  -0.000009  -0.544898   0.413545   0.002181
     56      -0.001929  -0.000127  -0.000010  -0.506267   0.343191   0.001725
     57       0.000236   0.000020  -0.000028   0.204236   0.285916   0.000689
     58       0.001628   0.000097  -0.000021  -0.092638  -0.164092   0.000285
     59       0.000179   0.000024   0.000049   0.544941   0.737436   0.000920


-----------
IR SPECTRUM
-----------

 Mode    freq (cm**-1)   T**2         TX         TY         TZ
-------------------------------------------------------------------
   6:        41.27    1.892411  ( -0.839556   1.063466   0.237902)
   7:        55.39    9.285833  (  0.884718   0.425826   2.884749)
   8:        88.31    0.218125  ( -0.106779  -0.294690   0.346237)
   9:        99.54    0.621318  ( -0.662109   0.232234  -0.359161)
  10:       135.08    0.762305  (  0.087350  -0.398935   0.771703)
  11:       181.60    0.409129  (  0.102420  -0.571477  -0.268428)
  12:       195.24    1.689622  ( -0.905169  -0.111709  -0.926182)
  13:       230.60   28.090752  ( -1.638956   0.755596   4.983337)
  14:       259.65   22.823694  (  1.391999   0.071974  -4.569557)
  15:       304.22   24.126248  (  3.808329   2.346517   2.028974)
  16:       343.75   11.309474  (  1.210843  -0.591203   3.081203)
  17:       396.67   15.015630  (  2.232245   0.369157   3.145860)
  18:       528.59  130.007891  (  3.954348  -1.809131  10.540307)
  19:       531.77    5.989727  (  1.143814  -0.924438   1.956228)
  20:       667.14    9.118564  ( -2.772039   1.116507   0.433329)
  21:       743.26    1.433523  (  0.187097   0.713415  -0.943163)
  22:       753.13    4.474046  ( -1.672387   0.995039   0.828895)
  23:       781.84    3.471939  ( -0.488984   1.745911   0.429684)
  24:       818.55    3.821821  (  0.945117  -1.709242   0.084065)
  25:       842.83    7.215595  (  0.676003   2.592784   0.189963)
  26:       918.24  142.112249  (  9.668157   6.951198  -0.565549)
  27:       960.68    4.848239  (  0.214630   2.081492   0.685249)
  28:       968.97   24.876251  (  2.965360   3.307270  -2.268228)
  29:      1011.08    5.476441  ( -0.528302  -1.370662   1.821709)
  30:      1045.69   17.728274  (  3.271502   2.361168  -1.204339)
  31:      1084.88    2.291877  ( -1.412608  -0.316413  -0.443058)
  32:      1117.96    2.808966  ( -0.242098   1.652365  -0.141577)
  33:      1166.17    5.384713  (  1.467663   1.564817   0.884323)
  34:      1183.80    7.603784  (  1.460567  -1.184241   2.016953)
  35:      1214.71    8.083586  (  1.744279   1.673042  -1.497333)
  36:      1267.49   18.844988  ( -2.717042  -1.169990   3.177074)
  37:      1275.56  125.837619  (  9.468967   2.490996  -5.474598)
  38:      1303.72   50.731491  ( -6.627313  -1.660828   2.012924)
  39:      1334.58    2.712944  ( -0.947094   0.488054  -1.256090)
  40:      1364.99  153.655651  ( 10.686704   2.995442  -5.520628)
  41:      1368.01   10.754882  ( -1.300771  -0.233241   3.001412)
  42:      1418.40   15.547126  ( -2.262362  -1.741598   2.719499)
  43:      1438.05   11.190765  ( -0.185714   2.927140   1.608766)
  44:      1453.54   14.350837  (  2.557608  -1.079196   2.577754)
  45:      1463.72    7.230520  (  1.659494   0.099341  -2.113464)
  46:      1471.65    4.565457  ( -1.870208  -0.729853   0.731502)
  47:      1650.10   27.015539  (  3.750853  -3.520348   0.744167)
  48:      1921.73  267.246924  (  9.839758 -13.021754  -0.927362)
  49:      3026.72    6.013133  (  0.818445  -1.762473   1.495649)
  50:      3030.40   46.772677  (  3.146096  -1.183056  -5.956101)
  51:      3051.13   24.014986  (  4.878163   0.439191  -0.160059)
  52:      3070.22   10.792644  (  2.335067   0.004005  -2.310863)
  53:      3102.81    6.667031  ( -0.192305  -2.325652  -1.105166)
  54:      3135.19    9.159370  (  0.349180  -2.679943  -1.362113)
  55:      3153.91    7.449230  ( -0.381396   2.409482   1.223995)
  56:      3180.02    2.007986  ( -0.671642  -0.604984   1.091273)
  57:      3527.68    6.346666  (  1.309873  -2.146288  -0.156039)
  58:      3607.14    7.123364  ( -0.292480   1.253442   2.338098)
  59:      3859.55   50.026314  ( -4.373243   5.334464   1.563507)

The first frequency considered to be a vibration is 6
The total number of vibrations considered is 54


--------------------------
THERMOCHEMISTRY AT 298.15K
--------------------------

Temperature         ... 298.15 K
Pressure            ... 1.00 atm
Total Mass          ... 149.21 AMU

Throughout the following assumptions are being made:
  (1) The electronic state is orbitally nondegenerate
  (2) There are no thermally accessible electronically excited states
  (3) Hindered rotations indicated by low frequency modes are not
      treated as such but are treated as vibrations and this may
      cause some error
  (4) All equations used are the standard statistical mechanics
      equations for an ideal gas
  (5) All vibrations are strictly harmonic

freq.      41.27  E(vib)   ...       0.54 
freq.      55.39  E(vib)   ...       0.52 
freq.      88.31  E(vib)   ...       0.48 
freq.      99.54  E(vib)   ...       0.46 
freq.     135.08  E(vib)   ...       0.42 
freq.     181.60  E(vib)   ...       0.37 
freq.     195.24  E(vib)   ...       0.36 
freq.     230.60  E(vib)   ...       0.32 
freq.     259.65  E(vib)   ...       0.30 
freq.     304.22  E(vib)   ...       0.26 
freq.     343.75  E(vib)   ...       0.23 
freq.     396.67  E(vib)   ...       0.20 
freq.     528.59  E(vib)   ...       0.13 
freq.     531.77  E(vib)   ...       0.13 
freq.     667.14  E(vib)   ...       0.08 
freq.     743.26  E(vib)   ...       0.06 
freq.     753.13  E(vib)   ...       0.06 
freq.     781.84  E(vib)   ...       0.05 
freq.     818.55  E(vib)   ...       0.05 
freq.     842.83  E(vib)   ...       0.04 
freq.     918.24  E(vib)   ...       0.03 
freq.     960.68  E(vib)   ...       0.03 
freq.     968.97  E(vib)   ...       0.03 
freq.    1011.08  E(vib)   ...       0.02 
freq.    1045.69  E(vib)   ...       0.02 
freq.    1084.88  E(vib)   ...       0.02 
freq.    1117.96  E(vib)   ...       0.01 
freq.    1166.17  E(vib)   ...       0.01 
freq.    1183.80  E(vib)   ...       0.01 
freq.    1214.71  E(vib)   ...       0.01 
freq.    1267.49  E(vib)   ...       0.01 
freq.    1275.56  E(vib)   ...       0.01 
freq.    1303.72  E(vib)   ...       0.01 
freq.    1334.58  E(vib)   ...       0.01 
freq.    1364.99  E(vib)   ...       0.01 
freq.    1368.01  E(vib)   ...       0.01 
freq.    1418.40  E(vib)   ...       0.00 
freq.    1438.05  E(vib)   ...       0.00 
freq.    1453.54  E(vib)   ...       0.00 
freq.    1463.72  E(vib)   ...       0.00 
freq.    1471.65  E(vib)   ...       0.00 
freq.    1650.10  E(vib)   ...       0.00 
freq.    1921.73  E(vib)   ...       0.00 
freq.    3026.72  E(vib)   ...       0.00 
freq.    3030.40  E(vib)   ...       0.00 
freq.    3051.13  E(vib)   ...       0.00 
freq.    3070.22  E(vib)   ...       0.00 
freq.    3102.81  E(vib)   ...       0.00 
freq.    3135.19  E(vib)   ...       0.00 
freq.    3153.91  E(vib)   ...       0.00 
freq.    3180.02  E(vib)   ...       0.00 
freq.    3527.68  E(vib)   ...       0.00 
freq.    3607.14  E(vib)   ...       0.00 
freq.    3859.55  E(vib)   ...       0.00 

------------
INNER ENERGY
------------

The inner energy is: U= E(el) + E(ZPE) + E(vib) + E(rot) + E(trans)
    E(el)   - is the total energy from the electronic structure calculation
              = E(kin-el) + E(nuc-el) + E(el-el) + E(nuc-nuc)
    E(ZPE)  - the the zero temperature vibrational energy from the frequency calculation
    E(vib)  - the the finite temperature correction to E(ZPE) due to population
              of excited vibrational states
    E(rot)  - is the rotational thermal energy
    E(trans)- is the translational thermal energy

Summary of contributions to the inner energy U:
Electronic energy                ...   -799.53878134 Eh
Zero point energy                ...      0.16664091 Eh     104.57 kcal/mol
Thermal vibrational correction   ...      0.00842701 Eh       5.29 kcal/mol
Thermal rotational correction    ...      0.00141627 Eh       0.89 kcal/mol
Thermal translational correction ...      0.00141627 Eh       0.89 kcal/mol
-----------------------------------------------------------------------
Total thermal energy                   -799.36088088 Eh


Summary of corrections to the electronic energy:
(perhaps to be used in another calculation)
Total thermal correction                  0.01125955 Eh       7.07 kcal/mol
Non-thermal (ZPE) correction              0.16664091 Eh     104.57 kcal/mol
-----------------------------------------------------------------------
Total correction                          0.17790046 Eh     111.63 kcal/mol


--------
ENTHALPY
--------

The enthalpy is H = U + kB*T
                kB is Boltzmann's constant
Total free energy                 ...   -799.36088088 Eh 
Thermal Enthalpy correction       ...      0.00094421 Eh       0.59 kcal/mol
-----------------------------------------------------------------------
Total Enthalpy                    ...   -799.35993667 Eh


Vibrational entropy computed according to the QRRHO of S. Grimme
Chem.Eur.J. 2012 18 9955

check  

-------
ENTROPY
-------

The entropy contributions are T*S = T*(S(el)+S(vib)+S(rot)+S(trans)
     S(el)   - electronic entropy
     S(vib)  - vibrational entropy
     S(rot)  - rotational entropy
     S(trans)- translational entropy
The entropies will be listed as mutliplied by the temperature to get
units of energy

Electronic entropy                ...      0.00000000 Eh      0.00 kcal/mol
Vibrational entropy               ...      0.01509030 Eh      9.47 kcal/mol
Rotational entropy                ...      0.01336933 Eh      8.39 kcal/mol
Translational entropy             ...      0.01943799 Eh     12.20 kcal/mol
-----------------------------------------------------------------------
Final entropy term                ...      0.04789762 Eh     30.06 kcal/mol


CAUTION: The rotational entropy is not quite correctly treated here
         because it includes a symmetry number that is not yet correctly
         implemented in ORCA!
For a nonlinear molecule the correct rotational entropy is:
    S(rot) = R*(ln(qrot/sn)+1.5)
    R    = 8.31441 J/mol/K = 1.987191683e-3 kcal/mol/K
    qrot = 944418.5782983
    sn is the rotational symmetry number. We have assumed 3 here
       if it is different for your molecule then you should correct
       the printed rotational entropy by manually evaluating the equation
       as given above

For convenience we print out the resulting values for sn=1 - 12:
 sn= 1  qrot/sn=  944418.5783 T*S(rot)=     9.04 kcal/mol T*S(tot)=    30.71 kcal/mol
 sn= 2  qrot/sn=  472209.2891 T*S(rot)=     8.63 kcal/mol T*S(tot)=    30.30 kcal/mol
 sn= 3  qrot/sn=  314806.1928 T*S(rot)=     8.39 kcal/mol T*S(tot)=    30.06 kcal/mol
 sn= 4  qrot/sn=  236104.6446 T*S(rot)=     8.22 kcal/mol T*S(tot)=    29.89 kcal/mol
 sn= 5  qrot/sn=  188883.7157 T*S(rot)=     8.09 kcal/mol T*S(tot)=    29.75 kcal/mol
 sn= 6  qrot/sn=  157403.0964 T*S(rot)=     7.98 kcal/mol T*S(tot)=    29.65 kcal/mol
 sn= 7  qrot/sn=  134916.9398 T*S(rot)=     7.89 kcal/mol T*S(tot)=    29.55 kcal/mol
 sn= 8  qrot/sn=  118052.3223 T*S(rot)=     7.81 kcal/mol T*S(tot)=    29.48 kcal/mol
 sn= 9  qrot/sn=  104935.3976 T*S(rot)=     7.74 kcal/mol T*S(tot)=    29.41 kcal/mol
 sn=10  qrot/sn=   94441.8578 T*S(rot)=     7.68 kcal/mol T*S(tot)=    29.34 kcal/mol
 sn=11  qrot/sn=   85856.2344 T*S(rot)=     7.62 kcal/mol T*S(tot)=    29.29 kcal/mol
 sn=12  qrot/sn=   78701.5482 T*S(rot)=     7.57 kcal/mol T*S(tot)=    29.23 kcal/mol


-------------------
GIBBS FREE ENTHALPY
-------------------

The Gibbs free enthalpy is G = H - T*S

Total enthalpy                    ...   -799.35993667 Eh 
Total entropy correction          ...     -0.04789762 Eh    -30.06 kcal/mol
-----------------------------------------------------------------------
Final Gibbs free enthalpy         ...   -799.40783429 Eh

For completeness - the Gibbs free enthalpy minus the electronic energy
G-E(el)                           ...      0.13094705 Eh     82.17 kcal/mol


Timings for individual modules:

Sum of individual times         ...     4875.351 sec (=  81.256 min)
GTO integral calculation        ...        5.134 sec (=   0.086 min)   0.1 %
SCF iterations                  ...      483.979 sec (=   8.066 min)   9.9 %
SCF Gradient evaluation         ...      251.355 sec (=   4.189 min)   5.2 %
Geometry relaxation             ...        4.361 sec (=   0.073 min)   0.1 %
Analytical frequency calculation...     4130.522 sec (=  68.842 min)  84.7 %
                             ****ORCA TERMINATED NORMALLY****
TOTAL RUN TIME: 0 days 1 hours 21 minutes 18 seconds 612 msec
