
                                 *****************
                                 * O   R   C   A *
                                 *****************

           --- An Ab Initio, DFT and Semiempirical electronic structure package ---

                  #######################################################
                  #                        -***-                        #
                  #  Department of molecular theory and spectroscopy    #
                  #              Directorship: Frank Neese              #
                  # Max Planck Institute for Chemical Energy Conversion #
                  #                  D-45470 Muelheim/Ruhr              #
                  #                       Germany                       #
                  #                                                     #
                  #                  All rights reserved                #
                  #                        -***-                        #
                  #######################################################


                         Program Version 4.0.0 -  RELEASE  -


 With contributions from (in alphabetic order):
   Daniel Aravena         : Magnetic Properties
   Michael Atanasov       : Ab Initio Ligand Field Theory
   Ute Becker             : Parallelization
   Martin Brehm           : Molecular dynamics
   Dmytro Bykov           : SCF Hessian
   Vijay G. Chilkuri      : MRCI spin determinant printing
   Dipayan Datta          : RHF DLPNO-CCSD density
   Achintya Kumar Dutta   : EOM-CC, STEOM-CC
   Dmitry Ganyushin       : Spin-Orbit,Spin-Spin,Magnetic field MRCI
   Yang Guo               : DLPNO-NEVPT2, CIM, IAO-localization
   Andreas Hansen         : Spin unrestricted coupled pair/coupled cluster methods
   Lee Huntington         : MR-EOM, pCC
   Robert Izsak           : Overlap fitted RIJCOSX, COSX-SCS-MP3, EOM
   Christian Kollmar      : KDIIS, OOCD, Brueckner-CCSD(T), CCSD density
   Simone Kossmann        : Meta GGA functionals, TD-DFT gradient, OOMP2, MP2 Hessian
   Martin Krupicka        : AUTO-CI
   Dagmar Lenk            : GEPOL surface
   Dimitrios Liakos       : Extrapolation schemes; parallel MDCI
   Dimitrios Manganas     : ROCIS; embedding schemes
   Dimitrios Pantazis     : SARC Basis sets
   Taras Petrenko         : DFT Hessian,TD-DFT gradient, ASA, ECA, R-Raman, ABS, FL, XAS/XES, NRVS
   Peter Pinski           : DLPNO-MP2
   Christoph Reimann      : Effective Core Potentials
   Marius Retegan         : Local ZFS, SOC
   Christoph Riplinger    : Optimizer, TS searches, QM/MM, DLPNO-CCSD(T), (RO)-DLPNO pert. Triples
   Tobias Risthaus        : Range-separated hybrids, TD-DFT gradient, RPA, STAB
   Michael Roemelt        : Restricted open shell CIS
   Masaaki Saitow         : Open-shell DLPNO
   Barbara Sandhoefer     : DKH picture change effects
   Kantharuban Sivalingam : CASSCF convergence, NEVPT2, FIC-MRCI
   Georgi Stoychev        : AutoAux
   Boris Wezisla          : Elementary symmetry handling
   Frank Wennmohs         : Technical directorship


 We gratefully acknowledge several colleagues who have allowed us to
 interface, adapt or use parts of their codes:
   Stefan Grimme, W. Hujo, H. Kruse,             : VdW corrections, initial TS optimization,
                  C. Bannwarth                     DFT functionals, gCP, sTDA/sTD-DF
   Ed Valeev                                     : LibInt (2-el integral package), F12 methods
   Garnet Chan, S. Sharma, J. Yang, R. Olivares  : DMRG
   Ulf Ekstrom                                   : XCFun DFT Library
   Mihaly Kallay                                 : mrcc  (arbitrary order and MRCC methods)
   Jiri Pittner, Ondrej Demel                    : Mk-CCSD
   Frank Weinhold                                : gennbo (NPA and NBO analysis)
   Christopher J. Cramer and Donald G. Truhlar   : smd solvation model


 Your calculation uses the libint2 library for the computation of 2-el integrals
 For citations please refer to: http://libint.valeyev.net

 This ORCA versions uses:
   CBLAS   interface :  Fast vector & matrix operations
   LAPACKE interface :  Fast linear algebra routines




*****************************************
The coordinations will be read from file: isoleucine.xyz
*****************************************


Your calculation utilizes the basis: def2-SVP
   F. Weigend and R. Ahlrichs, Phys. Chem. Chem. Phys. 7, 3297 (2005).

================================================================================
                                        WARNINGS
                       Please study these warnings very carefully!
================================================================================

Warning: TCutStore was < 0. Adjusted to Thresh (uncritical)

WARNING: Geometry Optimization
  ===> : Switching off AutoStart
         For restart on a previous wavefunction, please use MOREAD

INFO   : the flag for use of LIBINT has been found!

================================================================================
                                       INPUT FILE
================================================================================
NAME = isoleucine.inp
|  1> ! PBE0
|  2> ! opt anfreq
|  3> * xyzfile 0 1 isoleucine.xyz **                         ****END OF INPUT****
================================================================================

                       *****************************
                       * Geometry Optimization Run *
                       *****************************

Geometry optimization settings:
Update method            Update   .... BFGS
Choice of coordinates    CoordSys .... Redundant Internals
Initial Hessian          InHess   .... Almoef's Model

Convergence Tolerances:
Energy Change            TolE     .... 5.0000e-006 Eh
Max. Gradient            TolMAXG  .... 3.0000e-004 Eh/bohr
RMS Gradient             TolRMSG  .... 1.0000e-004 Eh/bohr
Max. Displacement        TolMAXD  .... 4.0000e-003 bohr
RMS Displacement         TolRMSD  .... 2.0000e-003 bohr

------------------------------------------------------------------------------
                        ORCA OPTIMIZATION COORDINATE SETUP
------------------------------------------------------------------------------

The optimization will be done in new redundant internal coordinates
Making redundant internal coordinates   ...  (new redundants) done
Evaluating the initial hessian          ...  (Almloef) done
Evaluating the coordinates              ...  done
Calculating the B-matrix                .... done
Calculating the G-matrix                .... done
Diagonalizing the G-matrix              .... done
Small eigenvalue found = 1.874e-002
The first mode is                       ....   48
The number of degrees of freedom        ....   60

    -----------------------------------------------------------------
                    Redundant Internal Coordinates


    -----------------------------------------------------------------
         Definition                    Initial Value    Approx d2E/dq
    -----------------------------------------------------------------
      1. B(C   1,C   0)                  1.5315         0.371566   
      2. B(C   2,C   1)                  1.5525         0.343979   
      3. B(C   3,C   2)                  1.5453         0.353161   
      4. B(C   4,C   2)                  1.5668         0.326348   
      5. B(C   5,C   4)                  1.5275         0.376975   
      6. B(O   6,C   5)                  1.2219         1.037757   
      7. B(O   7,C   5)                  1.3508         0.646345   
      8. B(N   8,C   4)                  1.4687         0.419092   
      9. B(H   9,C   0)                  1.1109         0.333535   
     10. B(H  10,C   0)                  1.1105         0.333919   
     11. B(H  11,C   0)                  1.1076         0.337551   
     12. B(H  12,C   1)                  1.1071         0.338225   
     13. B(H  13,C   1)                  1.1120         0.332155   
     14. B(H  14,C   2)                  1.1128         0.331206   
     15. B(H  15,C   3)                  1.1110         0.333308   
     16. B(H  16,C   3)                  1.1076         0.337541   
     17. B(H  17,C   3)                  1.1098         0.334835   
     18. B(H  18,C   4)                  1.1132         0.330718   
     19. B(H  19,O   7)                  0.9664         0.507830   
     20. B(H  20,N   8)                  1.0463         0.378690   
     21. B(H  21,N   8)                  1.0465         0.378394   
     22. A(H   9,C   0,H  10)          108.5690         0.284008   
     23. A(C   1,C   0,H  10)          110.2916         0.320051   
     24. A(H  10,C   0,H  11)          109.7615         0.284537   
     25. A(H   9,C   0,H  11)          107.1422         0.284486   
     26. A(C   1,C   0,H   9)          109.1395         0.319990   
     27. A(C   1,C   0,H  11)          111.8318         0.320617   
     28. A(H  12,C   1,H  13)          109.3240         0.284391   
     29. A(C   2,C   1,H  13)          109.9537         0.315779   
     30. A(C   0,C   1,C   2)          114.4672         0.357945   
     31. A(C   0,C   1,H  13)          108.8123         0.319774   
     32. A(C   0,C   1,H  12)          105.1051         0.320722   
     33. A(C   2,C   1,H  12)          108.9961         0.316711   
     34. A(C   1,C   2,C   4)          112.7857         0.350161   
     35. A(C   4,C   2,H  14)          108.1369         0.312949   
     36. A(C   3,C   2,H  14)          107.8063         0.316988   
     37. A(C   1,C   2,H  14)          107.9616         0.315632   
     38. A(C   1,C   2,C   3)          110.6432         0.354871   
     39. A(C   3,C   2,C   4)          109.3450         0.351723   
     40. A(H  16,C   3,H  17)          105.5494         0.284657   
     41. A(H  15,C   3,H  17)          108.6632         0.284099   
     42. A(C   2,C   3,H  17)          111.1262         0.317551   
     43. A(C   2,C   3,H  16)          111.5541         0.317967   
     44. A(C   2,C   3,H  15)          110.6107         0.317314   
     45. A(H  15,C   3,H  16)          109.1720         0.284455   
     46. A(C   2,C   4,H  18)          109.1383         0.312875   
     47. A(C   5,C   4,N   8)          109.8302         0.368841   
     48. A(C   2,C   4,C   5)          114.1243         0.355632   
     49. A(C   2,C   4,N   8)          109.1479         0.359854   
     50. A(N   8,C   4,H  18)          107.1227         0.323965   
     51. A(C   5,C   4,H  18)          107.2339         0.320303   
     52. A(C   4,C   5,O   7)          121.4065         0.397672   
     53. A(C   4,C   5,O   6)          120.2293         0.432589   
     54. A(O   6,C   5,O   7)          118.2169         0.473989   
     55. A(C   5,O   7,H  19)          122.5479         0.371265   
     56. A(H  20,N   8,H  21)          109.4292         0.290671   
     57. A(C   4,N   8,H  21)          110.2187         0.328414   
     58. A(C   4,N   8,H  20)          110.8022         0.328457   
     59. D(H  12,C   1,C   0,H  10)    -62.1543         0.011031   
     60. D(C   2,C   1,C   0,H   9)    176.5890         0.011031   
     61. D(C   2,C   1,C   0,H  10)     57.3993         0.011031   
     62. D(H  13,C   1,C   0,H  11)     58.3996         0.011031   
     63. D(C   2,C   1,C   0,H  11)    -65.0432         0.011031   
     64. D(H  13,C   1,C   0,H   9)    -59.9682         0.011031   
     65. D(H  13,C   1,C   0,H  10)   -179.1579         0.011031   
     66. D(H  12,C   1,C   0,H  11)    175.4032         0.011031   
     67. D(H  12,C   1,C   0,H   9)     57.0354         0.011031   
     68. D(C   4,C   2,C   1,H  13)     58.4447         0.009561   
     69. D(C   4,C   2,C   1,H  12)    -61.3769         0.009561   
     70. D(C   4,C   2,C   1,C   0)   -178.7276         0.009561   
     71. D(C   3,C   2,C   1,H  13)    -64.3889         0.009561   
     72. D(C   3,C   2,C   1,H  12)    175.7895         0.009561   
     73. D(H  14,C   2,C   1,H  13)    177.8585         0.009561   
     74. D(H  14,C   2,C   1,C   0)    -59.3138         0.009561   
     75. D(C   3,C   2,C   1,C   0)     58.4387         0.009561   
     76. D(H  14,C   2,C   1,H  12)     58.0369         0.009561   
     77. D(H  17,C   3,C   2,C   4)     57.0910         0.010035   
     78. D(H  17,C   3,C   2,C   1)   -178.0970         0.010035   
     79. D(H  16,C   3,C   2,H  14)     57.2421         0.010035   
     80. D(H  16,C   3,C   2,C   4)    174.5825         0.010035   
     81. D(H  16,C   3,C   2,C   1)    -60.6054         0.010035   
     82. D(H  15,C   3,C   2,C   4)    -63.6955         0.010035   
     83. D(H  15,C   3,C   2,C   1)     61.1165         0.010035   
     84. D(H  17,C   3,C   2,H  14)    -60.2494         0.010035   
     85. D(H  15,C   3,C   2,H  14)    178.9641         0.010035   
     86. D(N   8,C   4,C   2,C   1)   -179.1989         0.008693   
     87. D(C   5,C   4,C   2,H  14)    -61.8069         0.008693   
     88. D(C   5,C   4,C   2,C   3)   -178.9390         0.008693   
     89. D(C   5,C   4,C   2,C   1)     57.5053         0.008693   
     90. D(H  18,C   4,C   2,H  14)    178.2574         0.008693   
     91. D(H  18,C   4,C   2,C   3)     61.1254         0.008693   
     92. D(H  18,C   4,C   2,C   1)    -62.4303         0.008693   
     93. D(N   8,C   4,C   2,H  14)     61.4888         0.008693   
     94. D(N   8,C   4,C   2,C   3)    -55.6433         0.008693   
     95. D(O   7,C   5,C   4,H  18)     48.7285         0.010615   
     96. D(O   7,C   5,C   4,N   8)    164.8039         0.010615   
     97. D(O   7,C   5,C   4,C   2)    -72.2707         0.010615   
     98. D(O   6,C   5,C   4,H  18)   -126.7817         0.010615   
     99. D(O   6,C   5,C   4,N   8)    -10.7063         0.010615   
    100. D(O   6,C   5,C   4,C   2)    112.2192         0.010615   
    101. D(H  19,O   7,C   5,O   6)    171.4067         0.030846   
    102. D(H  19,O   7,C   5,C   4)     -4.1910         0.030846   
    103. D(H  21,N   8,C   4,H  18)     57.0776         0.014977   
    104. D(H  21,N   8,C   4,C   5)    -59.0679         0.014977   
    105. D(H  21,N   8,C   4,C   2)    175.1193         0.014977   
    106. D(H  20,N   8,C   4,H  18)    178.3512         0.014977   
    107. D(H  20,N   8,C   4,C   5)     62.2057         0.014977   
    108. D(H  20,N   8,C   4,C   2)    -63.6071         0.014977   
    -----------------------------------------------------------------

Number of atoms                         .... 22
Number of degrees of freedom            .... 108

         *************************************************************
         *                GEOMETRY OPTIMIZATION CYCLE   1            *
         *************************************************************
---------------------------------
CARTESIAN COORDINATES (ANGSTROEM)
---------------------------------
  C      0.773590   -0.075120    0.038150
  C      2.304190   -0.024170    0.030390
  C      2.920900    0.936490    1.082510
  C      2.477800    0.539410    2.508670
  C      4.485740    0.982060    1.019020
  C      5.043690    1.390490   -0.343050
  O      5.623800    2.457720   -0.475300
  O      4.992200    0.555820   -1.403830
  N      4.983540    1.895670    2.055650
  H      0.427030   -0.736980   -0.783950
  H      0.353620    0.940050   -0.124240
  H      0.380270   -0.496190    0.984080
  H      2.575950    0.328940   -0.983040
  H      2.697990   -1.053370    0.179350
  H      2.536010    1.960620    0.879360
  H      2.823300   -0.487700    2.753820
  H      1.377100    0.589570    2.621560
  H      2.886700    1.241550    3.264620
  H      4.890010   -0.028740    1.251390
  H      4.658850   -0.348890   -1.337860
  H      4.658560    2.873870    1.876060
  H      6.029500    1.875880    2.083240

----------------------------
CARTESIAN COORDINATES (A.U.)
----------------------------
  NO LB      ZA    FRAG     MASS         X           Y           Z
   0 C     6.0000    0    12.011    1.461873   -0.141956    0.072093
   1 C     6.0000    0    12.011    4.354288   -0.045675    0.057429
   2 C     6.0000    0    12.011    5.519701    1.769710    2.045647
   3 C     6.0000    0    12.011    4.682363    1.019337    4.740699
   4 C     6.0000    0    12.011    8.476820    1.855824    1.925669
   5 C     6.0000    0    12.011    9.531193    2.627645   -0.648271
   6 O     8.0000    0    15.999   10.627442    4.644418   -0.898187
   7 O     8.0000    0    15.999    9.433891    1.050348   -2.652854
   8 N     7.0000    0    14.007    9.417526    3.582297    3.884616
   9 H     1.0000    0     1.008    0.806970   -1.392690   -1.481451
  10 H     1.0000    0     1.008    0.668245    1.776437   -0.234780
  11 H     1.0000    0     1.008    0.718606   -0.937663    1.859642
  12 H     1.0000    0     1.008    4.867840    0.621607   -1.857676
  13 H     1.0000    0     1.008    5.098462   -1.990581    0.338922
  14 H     1.0000    0     1.008    4.792364    3.705035    1.661750
  15 H     1.0000    0     1.008    5.335264   -0.921619    5.203966
  16 H     1.0000    0     1.008    2.602342    1.114126    4.954030
  17 H     1.0000    0     1.008    5.455072    2.346189    6.169238
  18 H     1.0000    0     1.008    9.240780   -0.054311    2.364784
  19 H     1.0000    0     1.008    8.803951   -0.659307   -2.528189
  20 H     1.0000    0     1.008    8.803403    5.430827    3.545240
  21 H     1.0000    0     1.008   11.394104    3.544899    3.936753

--------------------------------
INTERNAL COORDINATES (ANGSTROEM)
--------------------------------
 C      0   0   0     0.000000000000     0.00000000     0.00000000
 C      1   0   0     1.531467427045     0.00000000     0.00000000
 C      2   1   0     1.552467505006   114.46722255     0.00000000
 C      3   2   1     1.545296891215   110.64317910    58.43871384
 C      3   2   1     1.566790295668   112.78572289   181.27236446
 C      5   3   2     1.527533290079   114.12426721    57.50534449
 O      6   5   3     1.221882787955   120.22930450   112.21916278
 O      6   5   3     1.350769942440   121.40651761   287.72934635
 N      5   3   2     1.468703451688   109.14789285   180.80107886
 H      1   2   3     1.110860433718   109.13951888   176.58900624
 H      1   2   3     1.110547361394   110.29160515    57.39928718
 H      1   2   3     1.107602876576   111.83179783   294.95680254
 H      2   1   3     1.107059408794   105.10507759   240.44640691
 H      2   1   3     1.111989281243   108.81230003   123.44281693
 H      3   2   1     1.112767941442   107.96161013   300.68617504
 H      4   3   2     1.111046229731   110.61074189    61.11652495
 H      4   3   2     1.107610341095   111.55409227   299.39455224
 H      4   3   2     1.109801870651   111.12619265   181.90301872
 H      5   3   2     1.113169659037   109.13826966   297.56972537
 H      8   6   5     0.966423534223   122.54785908   355.80897274
 H      9   5   3     1.046298145129   110.80224967   296.39285260
 H      9   5   3     1.046510952547   110.21870610   175.11932533

---------------------------
INTERNAL COORDINATES (A.U.)
---------------------------
 C      0   0   0     0.000000000000     0.00000000     0.00000000
 C      1   0   0     2.894054020136     0.00000000     0.00000000
 C      2   1   0     2.933738416274   114.46722255     0.00000000
 C      3   2   1     2.920187919997   110.64317910    58.43871384
 C      3   2   1     2.960804568098   112.78572289   181.27236446
 C      5   3   2     2.886619578697   114.12426721    57.50534449
 O      6   5   3     2.309023836987   120.22930450   112.21916278
 O      6   5   3     2.552585261145   121.40651761   287.72934635
 N      5   3   2     2.775447295635   109.14789285   180.80107886
 H      1   2   3     2.099221992736   109.13951888   176.58900624
 H      1   2   3     2.098630371784   110.29160515    57.39928718
 H      1   2   3     2.093066101873   111.83179783   294.95680254
 H      2   1   3     2.092039096602   105.10507759   240.44640691
 H      2   1   3     2.101355205406   108.81230003   123.44281693
 H      3   2   1     2.102826659932   107.96161013   300.68617504
 H      4   3   2     2.099573096318   110.61074189    61.11652495
 H      4   3   2     2.093080207768   111.55409227   299.39455224
 H      4   3   2     2.097221598443   111.12619265   181.90301872
 H      5   3   2     2.103585796170   109.13826966   297.56972537
 H      8   6   5     1.826275809058   122.54785908   355.80897274
 H      9   5   3     1.977216948723   110.80224967   296.39285260
 H      9   5   3     1.977619096462   110.21870610   175.11932533

---------------------
BASIS SET INFORMATION
---------------------
There are 4 groups of distinct atoms

 Group   1 Type C   : 7s4p1d contracted to 3s2p1d pattern {511/31/1}
 Group   2 Type O   : 7s4p1d contracted to 3s2p1d pattern {511/31/1}
 Group   3 Type N   : 7s4p1d contracted to 3s2p1d pattern {511/31/1}
 Group   4 Type H   : 4s1p contracted to 2s1p pattern {31/1}

Atom   0C    basis set group =>   1
Atom   1C    basis set group =>   1
Atom   2C    basis set group =>   1
Atom   3C    basis set group =>   1
Atom   4C    basis set group =>   1
Atom   5C    basis set group =>   1
Atom   6O    basis set group =>   2
Atom   7O    basis set group =>   2
Atom   8N    basis set group =>   3
Atom   9H    basis set group =>   4
Atom  10H    basis set group =>   4
Atom  11H    basis set group =>   4
Atom  12H    basis set group =>   4
Atom  13H    basis set group =>   4
Atom  14H    basis set group =>   4
Atom  15H    basis set group =>   4
Atom  16H    basis set group =>   4
Atom  17H    basis set group =>   4
Atom  18H    basis set group =>   4
Atom  19H    basis set group =>   4
Atom  20H    basis set group =>   4
Atom  21H    basis set group =>   4
-------------------------
ECP PARAMETER INFORMATION
-------------------------



------------------------------------------------------------------------------
                           ORCA GTO INTEGRAL CALCULATION
------------------------------------------------------------------------------

                         BASIS SET STATISTICS AND STARTUP INFO

 # of primitive gaussian shells          ...  173
 # of primitive gaussian functions       ...  307
 # of contracted shells                  ...   93
 # of contracted basis functions         ...  191
 Highest angular momentum                ...    2
 Maximum contraction depth               ...    5
 Integral package used                   ... LIBINT
 Integral threshhold            Thresh   ... 2.500e-011
 Primitive cut-off              TCut     ... 2.500e-012


------------------------------ INTEGRAL EVALUATION ----------------------------


 * One electron integrals 

   ECP integrals                          Pre-screening matrix                    ... done
 Shell pair data                         ... done (   0.001 sec)

Timings:
 Total evaluation time               ...     0.002 sec (   0.000 min)
 One electron matrix time            ...     0.021 sec (   0.000 min) =1050.0%
 Schwartz matrix evaluation time     ...     0.093 sec (   0.002 min) =4650.0%

-------------------------------------------------------------------------------
                                 ORCA SCF
-------------------------------------------------------------------------------

------------
SCF SETTINGS
------------
Hamiltonian:
 Density Functional     Method          .... DFT(GTOs)
 Exchange Functional    Exchange        .... PBE
   PBE kappa parameter   XKappa         ....  0.804000
   PBE mue parameter    XMuePBE         ....  0.219520
 Correlation Functional Correlation     .... PBE
   PBE beta parameter  CBetaPBE         ....  0.066725
 LDA part of GGA corr.  LDAOpt          .... PW91-LDA
 Gradients option       PostSCFGGA      .... off
 Hybrid DFT is turned on
   Fraction HF Exchange ScalHFX         ....  0.250000
   Scaling of DF-GGA-X  ScalDFX         ....  0.750000
   Scaling of DF-GGA-C  ScalDFC         ....  1.000000
   Scaling of DF-LDA-C  ScalLDAC        ....  1.000000
   Perturbative correction              ....  0.000000
   NL short-range parameter             ....  6.900000


General Settings:
 Integral files         IntName         .... isoleucine
 Hartree-Fock type      HFTyp           .... RHF
 Total Charge           Charge          ....    0
 Multiplicity           Mult            ....    1
 Number of Electrons    NEL             ....   72
 Basis Dimension        Dim             ....  191
 Nuclear Repulsion      ENuc            ....    485.3828302180 Eh

Convergence Acceleration:
 DIIS                   CNVDIIS         .... on
   Start iteration      DIISMaxIt       ....    12
   Startup error        DIISStart       ....  0.200000
   # of expansion vecs  DIISMaxEq       ....     5
   Bias factor          DIISBfac        ....   1.050
   Max. coefficient     DIISMaxC        ....  10.000
 Newton-Raphson         CNVNR           .... off
 SOSCF                  CNVSOSCF        .... on
   Start iteration      SOSCFMaxIt      ....   150
   Startup grad/error   SOSCFStart      ....  0.003300
 Level Shifting         CNVShift        .... on
   Level shift para.    LevelShift      ....    0.2500
   Turn off err/grad.   ShiftErr        ....    0.0010
 Zerner damping         CNVZerner       .... off
 Static damping         CNVDamp         .... on
   Fraction old density DampFac         ....    0.7000
   Max. Damping (<1)    DampMax         ....    0.9800
   Min. Damping (>=0)   DampMin         ....    0.0000
   Turn off err/grad.   DampErr         ....    0.1000
 Fernandez-Rico         CNVRico         .... off

SCF Procedure:
 Maximum # iterations   MaxIter         ....   125
 SCF integral mode      SCFMode         .... Direct
   Integral package                     .... LIBINT
 Reset frequeny         DirectResetFreq ....    20
 Integral Threshold     Thresh          .... 2.500e-011 Eh
 Primitive CutOff       TCut            .... 2.500e-012 Eh

Convergence Tolerance:
 Convergence Check Mode ConvCheckMode   .... Total+1el-Energy
 Convergence forced     ConvForced      .... 0
 Energy Change          TolE            .... 1.000e-008 Eh
 1-El. energy change                    .... 1.000e-005 Eh
 Orbital Gradient       TolG            .... 1.000e-005
 Orbital Rotation angle TolX            .... 1.000e-005
 DIIS Error             TolErr          .... 5.000e-007


Diagonalization of the overlap matrix:
Smallest eigenvalue                        ... 1.205e-003
Time for diagonalization                   ...    0.005 sec
Threshold for overlap eigenvalues          ... 1.000e-008
Number of eigenvalues below threshold      ... 0
Time for construction of square roots      ...    0.002 sec
Total time needed                          ...    0.007 sec

-------------------
DFT GRID GENERATION
-------------------

General Integration Accuracy     IntAcc      ...  4.340
Radial Grid Type                 RadialGrid  ... Gauss-Chebyshev
Angular Grid (max. acc.)         AngularGrid ... Lebedev-110
Angular grid pruning method      GridPruning ... 3 (G Style)
Weight generation scheme         WeightScheme... Becke
Basis function cutoff            BFCut       ...   1.0000e-011
Integration weight cutoff        WCut        ...   1.0000e-014
Grids for H and He will be reduced by one unit

# of grid points (after initial pruning)     ...  25392 (   0.0 sec)
# of grid points (after weights+screening)   ...  23084 (   0.1 sec)
nearest neighbour list constructed           ...    0.0 sec
Grid point re-assignment to atoms done       ...    0.0 sec
Grid point division into batches done        ...    0.0 sec
Reduced shell lists constructed in    0.1 sec

Total number of grid points                  ...    23084
Total number of batches                      ...      370
Average number of points per batch           ...       62
Average number of grid points per atom       ...     1049
Average number of shells per batch           ...    65.51 (70.44%)
Average number of basis functions per batch  ...   129.73 (67.92%)
Average number of large shells per batch     ...    49.99 (76.31%)
Average number of large basis fcns per batch ...    95.85 (73.88%)
Maximum spatial batch extension              ...  19.40, 24.44, 19.07 au
Average spatial batch extension              ...   3.41,  3.52,  3.39 au

Time for grid setup =    0.224 sec

------------------------------
INITIAL GUESS: MODEL POTENTIAL
------------------------------
Loading Hartree-Fock densities                     ... done
Calculating cut-offs                               ... done
Setting up the integral package                    ... done
Initializing the effective Hamiltonian             ... done
Starting the Coulomb interaction                   ... done (   0.1 sec)
Reading the grid                                   ... done
Mapping shells                                     ... done
Starting the XC term evaluation                    ... done (   0.2 sec)
  promolecular density results
     # of electrons  =     71.981996370
     EX              =    -57.316114837
     EC              =     -2.379931580
     EX+EC           =    -59.696046417
Transforming the Hamiltonian                       ... done (   0.0 sec)
Diagonalizing the Hamiltonian                      ... done (   0.0 sec)
Back transforming the eigenvectors                 ... done (   0.0 sec)
Now organizing SCF variables                       ... done
                      ------------------
                      INITIAL GUESS DONE (   0.6 sec)
                      ------------------
--------------
SCF ITERATIONS
--------------
ITER       Energy         Delta-E        Max-DP      RMS-DP      [F,P]     Damp
               ***  Starting incremental Fock matrix formation  ***
  0   -440.5187772552   0.000000000000 0.09088021  0.00253299  0.2524504 0.7000
  1   -440.6729509876  -0.154173732400 0.05411280  0.00163214  0.1012596 0.7000
                               ***Turning on DIIS***
  2   -440.7298414450  -0.056890457376 0.06133778  0.00240499  0.0412140 0.0000
  3   -440.8206709617  -0.090829516723 0.04389780  0.00115068  0.0577588 0.0000
  4   -440.8410416270  -0.020370665226 0.01360573  0.00033864  0.0127752 0.0000
  5   -440.8422139946  -0.001172367653 0.00465393  0.00010988  0.0073626 0.0000
                      *** Initiating the SOSCF procedure ***
                           *** Shutting down DIIS ***
                      *** Re-Reading the Fockian *** 
                      *** Removing any level shift *** 
ITER      Energy       Delta-E        Grad      Rot      Max-DP    RMS-DP
  6   -440.84231057  -0.0000965754  0.000238  0.000238  0.001034  0.000035
               *** Restarting incremental Fock matrix formation ***
  7   -440.84231686  -0.0000062888  0.000161  0.000489  0.000872  0.000025
  8   -440.84231683   0.0000000255  0.000287  0.000390  0.000433  0.000010
  9   -440.84231806  -0.0000012262  0.000068  0.000138  0.000203  0.000005
 10   -440.84231799   0.0000000666  0.000078  0.000076  0.000119  0.000003
 11   -440.84231812  -0.0000001256  0.000009  0.000013  0.000041  0.000001
 12   -440.84231812   0.0000000003  0.000010  0.000007  0.000022  0.000001
                  ***Gradient check signals convergence***
              ***Rediagonalizing the Fockian in SOSCF/NRSCF***

               *****************************************************
               *                     SUCCESS                       *
               *           SCF CONVERGED AFTER  13 CYCLES          *
               *****************************************************

Setting up the final grid:

General Integration Accuracy     IntAcc      ...  4.670
Radial Grid Type                 RadialGrid  ... Gauss-Chebyshev
Angular Grid (max. acc.)         AngularGrid ... Lebedev-302
Angular grid pruning method      GridPruning ... 3 (G Style)
Weight generation scheme         WeightScheme... Becke
Basis function cutoff            BFCut       ...   1.0000e-011
Integration weight cutoff        WCut        ...   1.0000e-014
Grids for H and He will be reduced by one unit

# of grid points (after initial pruning)     ... 100030 (   0.1 sec)
# of grid points (after weights+screening)   ...  89274 (   0.3 sec)
nearest neighbour list constructed           ...    0.0 sec
Grid point re-assignment to atoms done       ...    0.0 sec
Grid point division into batches done        ...    0.3 sec
Reduced shell lists constructed in    0.9 sec

Total number of grid points                  ...    89274
Total number of batches                      ...     1408
Average number of points per batch           ...       63
Average number of grid points per atom       ...     4058
Average number of shells per batch           ...    60.11 (64.63%)
Average number of basis functions per batch  ...   117.76 (61.65%)
Average number of large shells per batch     ...    44.73 (74.42%)
Average number of large basis fcns per batch ...    84.72 (71.94%)
Maximum spatial batch extension              ...  18.78, 18.47, 19.63 au
Average spatial batch extension              ...   2.25,  2.27,  2.30 au

Final grid set up in    1.3 sec
Final integration                            ... done (   1.3 sec)
Change in XC energy                          ...    -0.000200204
Integrated number of electrons               ...    71.999841539
Previous integrated no of electrons          ...    71.995414175

----------------
TOTAL SCF ENERGY
----------------

Total Energy       :         -440.84251832 Eh          -11995.93479 eV

Components:
Nuclear Repulsion  :          485.38283022 Eh           13207.93829 eV
Electronic Energy  :         -926.22534854 Eh          -25203.87307 eV
One Electron Energy:        -1561.71813507 Eh          -42496.51094 eV
Two Electron Energy:          635.49278653 Eh           17292.63786 eV

Virial components:
Potential Energy   :         -877.06319271 Eh          -23866.10280 eV
Kinetic Energy     :          436.22067439 Eh           11870.16802 eV
Virial Ratio       :            2.01059520


DFT components:
N(Alpha)           :       35.999920769388 electrons
N(Beta)            :       35.999920769388 electrons
N(Total)           :       71.999841538775 electrons
E(X)               :      -43.823794797528 Eh       
E(C)               :       -2.400927657229 Eh       
E(XC)              :      -46.224722454757 Eh       

---------------
SCF CONVERGENCE
---------------

  Last Energy change         ...  -2.3109e-009  Tolerance :  1.0000e-008
  Last MAX-Density change    ...   3.5835e-006  Tolerance :  1.0000e-007
  Last RMS-Density change    ...   8.0364e-008  Tolerance :  5.0000e-009
  Last Orbital Gradient      ...   6.5975e-007  Tolerance :  1.0000e-005
  Last Orbital Rotation      ...   9.8844e-007  Tolerance :  1.0000e-005

             **** THE GBW FILE WAS UPDATED (isoleucine.gbw) ****
             **** DENSITY FILE WAS UPDATED (isoleucine.scfp.tmp) ****
             **** ENERGY FILE WAS UPDATED (isoleucine.en.tmp) ****
----------------
ORBITAL ENERGIES
----------------

  NO   OCC          E(Eh)            E(eV) 
   0   2.0000     -19.257388      -524.0202 
   1   2.0000     -19.190876      -522.2103 
   2   2.0000     -14.376317      -391.1995 
   3   2.0000     -10.360652      -281.9277 
   4   2.0000     -10.284048      -279.8432 
   5   2.0000     -10.258192      -279.1396 
   6   2.0000     -10.247853      -278.8582 
   7   2.0000     -10.236974      -278.5622 
   8   2.0000     -10.227963      -278.3170 
   9   2.0000      -1.113832       -30.3089 
  10   2.0000      -1.025452       -27.9040 
  11   2.0000      -0.902057       -24.5462 
  12   2.0000      -0.823755       -22.4155 
  13   2.0000      -0.747960       -20.3530 
  14   2.0000      -0.710270       -19.3274 
  15   2.0000      -0.658694       -17.9240 
  16   2.0000      -0.637360       -17.3434 
  17   2.0000      -0.589942       -16.0531 
  18   2.0000      -0.543428       -14.7874 
  19   2.0000      -0.509916       -13.8755 
  20   2.0000      -0.483822       -13.1655 
  21   2.0000      -0.472973       -12.8703 
  22   2.0000      -0.455643       -12.3987 
  23   2.0000      -0.442651       -12.0451 
  24   2.0000      -0.439880       -11.9697 
  25   2.0000      -0.408096       -11.1048 
  26   2.0000      -0.403701       -10.9853 
  27   2.0000      -0.395679       -10.7670 
  28   2.0000      -0.386179       -10.5085 
  29   2.0000      -0.377191       -10.2639 
  30   2.0000      -0.353085        -9.6079 
  31   2.0000      -0.346674        -9.4335 
  32   2.0000      -0.340573        -9.2675 
  33   2.0000      -0.323869        -8.8129 
  34   2.0000      -0.283183        -7.7058 
  35   2.0000      -0.251882        -6.8541 
  36   0.0000       0.006554         0.1783 
  37   0.0000       0.045904         1.2491 
  38   0.0000       0.063605         1.7308 
  39   0.0000       0.076400         2.0789 
  40   0.0000       0.084026         2.2865 
  41   0.0000       0.111031         3.0213 
  42   0.0000       0.123635         3.3643 
  43   0.0000       0.127646         3.4734 
  44   0.0000       0.137278         3.7355 
  45   0.0000       0.147274         4.0075 
  46   0.0000       0.152766         4.1570 
  47   0.0000       0.163025         4.4361 
  48   0.0000       0.165183         4.4948 
  49   0.0000       0.182048         4.9538 
  50   0.0000       0.206271         5.6129 
  51   0.0000       0.218174         5.9368 
  52   0.0000       0.233957         6.3663 
  53   0.0000       0.242520         6.5993 
  54   0.0000       0.249786         6.7970 
  55   0.0000       0.276344         7.5197 
  56   0.0000       0.340940         9.2775 
  57   0.0000       0.385258        10.4834 
  58   0.0000       0.416683        11.3385 
  59   0.0000       0.422796        11.5049 
  60   0.0000       0.441044        12.0014 
  61   0.0000       0.450394        12.2558 
  62   0.0000       0.465106        12.6562 
  63   0.0000       0.487266        13.2592 
  64   0.0000       0.496568        13.5123 
  65   0.0000       0.537733        14.6325 
  66   0.0000       0.558260        15.1910 
  67   0.0000       0.570416        15.5218 
  68   0.0000       0.585222        15.9247 
  69   0.0000       0.600243        16.3334 
  70   0.0000       0.608557        16.5597 
  71   0.0000       0.627822        17.0839 
  72   0.0000       0.646448        17.5908 
  73   0.0000       0.650874        17.7112 
  74   0.0000       0.653776        17.7902 
  75   0.0000       0.670129        18.2351 
  76   0.0000       0.672248        18.2928 
  77   0.0000       0.681327        18.5398 
  78   0.0000       0.686838        18.6898 
  79   0.0000       0.694539        18.8994 
  80   0.0000       0.699730        19.0406 
  81   0.0000       0.704085        19.1591 
  82   0.0000       0.714165        19.4334 
  83   0.0000       0.721881        19.6434 
  84   0.0000       0.723090        19.6763 
  85   0.0000       0.733783        19.9673 
  86   0.0000       0.746245        20.3064 
  87   0.0000       0.753420        20.5016 
  88   0.0000       0.785427        21.3726 
  89   0.0000       0.808468        21.9995 
  90   0.0000       0.858245        23.3540 
  91   0.0000       0.873815        23.7777 
  92   0.0000       0.924316        25.1519 
  93   0.0000       0.935891        25.4669 
  94   0.0000       0.968687        26.3593 
  95   0.0000       0.974396        26.5147 
  96   0.0000       1.025152        27.8958 
  97   0.0000       1.045766        28.4567 
  98   0.0000       1.077149        29.3107 
  99   0.0000       1.096963        29.8499 
 100   0.0000       1.116746        30.3882 
 101   0.0000       1.136612        30.9288 
 102   0.0000       1.176572        32.0161 
 103   0.0000       1.218253        33.1504 
 104   0.0000       1.244702        33.8701 
 105   0.0000       1.267794        34.4984 
 106   0.0000       1.297355        35.3028 
 107   0.0000       1.306243        35.5447 
 108   0.0000       1.339364        36.4459 
 109   0.0000       1.359212        36.9860 
 110   0.0000       1.383047        37.6346 
 111   0.0000       1.394401        37.9436 
 112   0.0000       1.438411        39.1412 
 113   0.0000       1.478987        40.2453 
 114   0.0000       1.523272        41.4503 
 115   0.0000       1.525824        41.5198 
 116   0.0000       1.559972        42.4490 
 117   0.0000       1.565763        42.6066 
 118   0.0000       1.602435        43.6045 
 119   0.0000       1.626982        44.2724 
 120   0.0000       1.662096        45.2279 
 121   0.0000       1.704371        46.3783 
 122   0.0000       1.723646        46.9028 
 123   0.0000       1.736852        47.2621 
 124   0.0000       1.750168        47.6245 
 125   0.0000       1.759524        47.8791 
 126   0.0000       1.769905        48.1616 
 127   0.0000       1.777197        48.3600 
 128   0.0000       1.785487        48.5856 
 129   0.0000       1.800787        49.0019 
 130   0.0000       1.808400        49.2091 
 131   0.0000       1.831368        49.8340 
 132   0.0000       1.838482        50.0276 
 133   0.0000       1.850769        50.3620 
 134   0.0000       1.858150        50.5628 
 135   0.0000       1.880674        51.1757 
 136   0.0000       1.892915        51.5088 
 137   0.0000       1.899431        51.6862 
 138   0.0000       1.929319        52.4994 
 139   0.0000       1.946463        52.9660 
 140   0.0000       1.958375        53.2901 
 141   0.0000       1.978171        53.8288 
 142   0.0000       1.993401        54.2432 
 143   0.0000       2.013530        54.7909 
 144   0.0000       2.041771        55.5594 
 145   0.0000       2.063457        56.1495 
 146   0.0000       2.088324        56.8262 
 147   0.0000       2.120292        57.6961 
 148   0.0000       2.128326        57.9147 
 149   0.0000       2.169042        59.0226 
 150   0.0000       2.204319        59.9826 
 151   0.0000       2.256640        61.4063 
 152   0.0000       2.293064        62.3975 
 153   0.0000       2.309366        62.8410 
 154   0.0000       2.316726        63.0413 
 155   0.0000       2.360419        64.2303 
 156   0.0000       2.391473        65.0753 
 157   0.0000       2.411644        65.6242 
 158   0.0000       2.418087        65.7995 
 159   0.0000       2.464213        67.0546 
 160   0.0000       2.493279        67.8456 
 161   0.0000       2.536525        69.0223 
 162   0.0000       2.568938        69.9044 
 163   0.0000       2.593240        70.5657 
 164   0.0000       2.607682        70.9586 
 165   0.0000       2.637414        71.7677 
 166   0.0000       2.673306        72.7443 
 167   0.0000       2.725165        74.1555 
 168   0.0000       2.731752        74.3347 
 169   0.0000       2.755586        74.9833 
 170   0.0000       2.805690        76.3467 
 171   0.0000       2.820249        76.7429 
 172   0.0000       2.842610        77.3513 
 173   0.0000       2.848591        77.5141 
 174   0.0000       2.873365        78.1882 
 175   0.0000       2.917826        79.3981 
 176   0.0000       2.927555        79.6628 
 177   0.0000       2.967450        80.7484 
 178   0.0000       2.994190        81.4760 
 179   0.0000       3.002384        81.6990 
 180   0.0000       3.005337        81.7794 
 181   0.0000       3.049527        82.9819 
 182   0.0000       3.087814        84.0237 
 183   0.0000       3.103459        84.4494 
 184   0.0000       3.177543        86.4653 
 185   0.0000       3.250725        88.4567 
 186   0.0000       3.292822        89.6023 
 187   0.0000       3.383169        92.0607 
 188   0.0000       3.508349        95.4670 
 189   0.0000       3.650276        99.3291 
 190   0.0000       3.828288       104.1730 

                    ********************************
                    * MULLIKEN POPULATION ANALYSIS *
                    ********************************

-----------------------
MULLIKEN ATOMIC CHARGES
-----------------------
   0 C :   -0.074737
   1 C :   -0.115721
   2 C :   -0.170570
   3 C :   -0.017811
   4 C :   -0.042373
   5 C :    0.223268
   6 O :   -0.242817
   7 O :   -0.206602
   8 N :   -0.251201
   9 H :    0.046532
  10 H :    0.047632
  11 H :    0.053410
  12 H :    0.047683
  13 H :    0.031623
  14 H :    0.039731
  15 H :    0.030917
  16 H :    0.046064
  17 H :    0.057253
  18 H :    0.041693
  19 H :    0.195601
  20 H :    0.131819
  21 H :    0.128608
Sum of atomic charges:    0.0000000

--------------------------------
MULLIKEN REDUCED ORBITAL CHARGES
--------------------------------
  0 C s       :     3.054438  s :     3.054438
      pz      :     1.024741  p :     2.992959
      px      :     0.953272
      py      :     1.014946
      dz2     :     0.004946  d :     0.027340
      dxz     :     0.005471
      dyz     :     0.005049
      dx2y2   :     0.006214
      dxy     :     0.005660
  1 C s       :     3.090250  s :     3.090250
      pz      :     0.996310  p :     2.990102
      px      :     1.008221
      py      :     0.985572
      dz2     :     0.008708  d :     0.035369
      dxz     :     0.006150
      dyz     :     0.004895
      dx2y2   :     0.008583
      dxy     :     0.007033
  2 C s       :     3.166448  s :     3.166448
      pz      :     1.019517  p :     2.962868
      px      :     0.931599
      py      :     1.011752
      dz2     :     0.010795  d :     0.041254
      dxz     :     0.007019
      dyz     :     0.007713
      dx2y2   :     0.009869
      dxy     :     0.005859
  3 C s       :     3.027760  s :     3.027760
      pz      :     0.955189  p :     2.963790
      px      :     0.993036
      py      :     1.015565
      dz2     :     0.006737  d :     0.026261
      dxz     :     0.003662
      dyz     :     0.006330
      dx2y2   :     0.007249
      dxy     :     0.002283
  4 C s       :     3.082382  s :     3.082382
      pz      :     0.915054  p :     2.904377
      px      :     1.005101
      py      :     0.984223
      dz2     :     0.017712  d :     0.055614
      dxz     :     0.009954
      dyz     :     0.009534
      dx2y2   :     0.009506
      dxy     :     0.008908
  5 C s       :     3.066659  s :     3.066659
      pz      :     0.881981  p :     2.578619
      px      :     0.830361
      py      :     0.866278
      dz2     :     0.021433  d :     0.131454
      dxz     :     0.017860
      dyz     :     0.045628
      dx2y2   :     0.024626
      dxy     :     0.021907
  6 O s       :     3.763012  s :     3.763012
      pz      :     1.733712  p :     4.461799
      px      :     1.375548
      py      :     1.352539
      dz2     :     0.002260  d :     0.018006
      dxz     :     0.000989
      dyz     :     0.003207
      dx2y2   :     0.005641
      dxy     :     0.005909
  7 O s       :     3.676031  s :     3.676031
      pz      :     1.568325  p :     4.518562
      px      :     1.729618
      py      :     1.220619
      dz2     :     0.003834  d :     0.012008
      dxz     :     0.002001
      dyz     :     0.003101
      dx2y2   :     0.001431
      dxy     :     0.001641
  8 N s       :     3.445978  s :     3.445978
      pz      :     1.559529  p :     3.787882
      px      :     1.124115
      py      :     1.104237
      dz2     :     0.003975  d :     0.017341
      dxz     :     0.001857
      dyz     :     0.004224
      dx2y2   :     0.006185
      dxy     :     0.001099
  9 H s       :     0.930284  s :     0.930284
      pz      :     0.010038  p :     0.023184
      px      :     0.005053
      py      :     0.008093
 10 H s       :     0.929250  s :     0.929250
      pz      :     0.005041  p :     0.023118
      px      :     0.005419
      py      :     0.012659
 11 H s       :     0.923148  s :     0.923148
      pz      :     0.011994  p :     0.023442
      px      :     0.005200
      py      :     0.006248
 12 H s       :     0.929451  s :     0.929451
      pz      :     0.012369  p :     0.022866
      px      :     0.005101
      py      :     0.005396
 13 H s       :     0.946713  s :     0.946713
      pz      :     0.004425  p :     0.021664
      px      :     0.004817
      py      :     0.012422
 14 H s       :     0.939666  s :     0.939666
      pz      :     0.003815  p :     0.020603
      px      :     0.004491
      py      :     0.012297
 15 H s       :     0.946163  s :     0.946163
      pz      :     0.004473  p :     0.022920
      px      :     0.005695
      py      :     0.012752
 16 H s       :     0.930294  s :     0.930294
      pz      :     0.004389  p :     0.023642
      px      :     0.014127
      py      :     0.005126
 17 H s       :     0.918791  s :     0.918791
      pz      :     0.008131  p :     0.023956
      px      :     0.007163
      py      :     0.008662
 18 H s       :     0.938214  s :     0.938214
      pz      :     0.003674  p :     0.020092
      px      :     0.004647
      py      :     0.011771
 19 H s       :     0.734426  s :     0.734426
      pz      :     0.014327  p :     0.069973
      px      :     0.020149
      py      :     0.035497
 20 H s       :     0.824429  s :     0.824429
      pz      :     0.011472  p :     0.043752
      px      :     0.010567
      py      :     0.021713
 21 H s       :     0.827636  s :     0.827636
      pz      :     0.011569  p :     0.043756
      px      :     0.023997
      py      :     0.008190


                     *******************************
                     * LOEWDIN POPULATION ANALYSIS *
                     *******************************

----------------------
LOEWDIN ATOMIC CHARGES
----------------------
   0 C :   -0.070817
   1 C :   -0.061427
   2 C :   -0.040604
   3 C :   -0.067731
   4 C :   -0.030813
   5 C :    0.082793
   6 O :   -0.184673
   7 O :   -0.041577
   8 N :   -0.112523
   9 H :    0.032869
  10 H :    0.031970
  11 H :    0.028273
  12 H :    0.023564
  13 H :    0.020623
  14 H :    0.031011
  15 H :    0.027818
  16 H :    0.027299
  17 H :    0.034639
  18 H :    0.033022
  19 H :    0.093908
  20 H :    0.070625
  21 H :    0.071751

-------------------------------
LOEWDIN REDUCED ORBITAL CHARGES
-------------------------------
  0 C s       :     2.851840  s :     2.851840
      pz      :     1.067123  p :     3.149456
      px      :     1.017283
      py      :     1.065050
      dz2     :     0.013331  d :     0.069521
      dxz     :     0.012433
      dyz     :     0.013241
      dx2y2   :     0.017624
      dxy     :     0.012892
  1 C s       :     2.853151  s :     2.853151
      pz      :     1.042568  p :     3.121729
      px      :     1.037497
      py      :     1.041664
      dz2     :     0.021650  d :     0.086547
      dxz     :     0.013649
      dyz     :     0.013386
      dx2y2   :     0.021859
      dxy     :     0.016004
  2 C s       :     2.862204  s :     2.862204
      pz      :     1.036624  p :     3.080278
      px      :     0.991628
      py      :     1.052025
      dz2     :     0.025564  d :     0.098122
      dxz     :     0.015899
      dyz     :     0.018213
      dx2y2   :     0.024823
      dxy     :     0.013623
  3 C s       :     2.852991  s :     2.852991
      pz      :     1.021276  p :     3.146968
      px      :     1.059130
      py      :     1.066562
      dz2     :     0.018510  d :     0.067772
      dxz     :     0.009534
      dyz     :     0.015282
      dx2y2   :     0.018494
      dxy     :     0.005952
  4 C s       :     2.863661  s :     2.863661
      pz      :     0.986636  p :     3.038573
      px      :     1.035974
      py      :     1.015963
      dz2     :     0.042734  d :     0.128579
      dxz     :     0.021634
      dyz     :     0.023000
      dx2y2   :     0.023115
      dxy     :     0.018096
  5 C s       :     2.874193  s :     2.874193
      pz      :     0.958186  p :     2.757071
      px      :     0.857517
      py      :     0.941368
      dz2     :     0.049995  d :     0.285943
      dxz     :     0.037141
      dyz     :     0.102662
      dx2y2   :     0.048755
      dxy     :     0.047390
  6 O s       :     3.561214  s :     3.561214
      pz      :     1.734216  p :     4.593235
      px      :     1.403738
      py      :     1.455282
      dz2     :     0.004415  d :     0.030224
      dxz     :     0.001476
      dyz     :     0.004848
      dx2y2   :     0.008399
      dxy     :     0.011087
  7 O s       :     3.407091  s :     3.407091
      pz      :     1.592965  p :     4.609593
      px      :     1.701274
      py      :     1.315354
      dz2     :     0.007472  d :     0.024893
      dxz     :     0.002392
      dyz     :     0.007049
      dx2y2   :     0.004080
      dxy     :     0.003900
  8 N s       :     3.145998  s :     3.145998
      pz      :     1.551891  p :     3.927005
      px      :     1.197018
      py      :     1.178096
      dz2     :     0.007588  d :     0.039520
      dxz     :     0.003311
      dyz     :     0.008723
      dx2y2   :     0.015538
      dxy     :     0.004359
  9 H s       :     0.902957  s :     0.902957
      pz      :     0.027277  p :     0.064174
      px      :     0.015217
      py      :     0.021680
 10 H s       :     0.903861  s :     0.903861
      pz      :     0.012501  p :     0.064170
      px      :     0.016217
      py      :     0.035451
 11 H s       :     0.906077  s :     0.906077
      pz      :     0.033600  p :     0.065650
      px      :     0.015987
      py      :     0.016063
 12 H s       :     0.907921  s :     0.907921
      pz      :     0.037277  p :     0.068515
      px      :     0.015916
      py      :     0.015322
 13 H s       :     0.914350  s :     0.914350
      pz      :     0.012804  p :     0.065026
      px      :     0.015947
      py      :     0.036275
 14 H s       :     0.902889  s :     0.902889
      pz      :     0.013826  p :     0.066100
      px      :     0.015714
      py      :     0.036561
 15 H s       :     0.907989  s :     0.907989
      pz      :     0.013687  p :     0.064193
      px      :     0.014723
      py      :     0.035783
 16 H s       :     0.906523  s :     0.906523
      pz      :     0.013488  p :     0.066179
      px      :     0.040073
      py      :     0.012618
 17 H s       :     0.897474  s :     0.897474
      pz      :     0.025699  p :     0.067887
      px      :     0.018108
      py      :     0.024080
 18 H s       :     0.900948  s :     0.900948
      pz      :     0.013268  p :     0.066030
      px      :     0.016776
      py      :     0.035986
 19 H s       :     0.724026  s :     0.724026
      pz      :     0.038444  p :     0.182065
      px      :     0.053672
      py      :     0.089949
 20 H s       :     0.814011  s :     0.814011
      pz      :     0.033603  p :     0.115364
      px      :     0.022757
      py      :     0.059004
 21 H s       :     0.813369  s :     0.813369
      pz      :     0.033267  p :     0.114880
      px      :     0.064090
      py      :     0.017523


                      *****************************
                      * MAYER POPULATION ANALYSIS *
                      *****************************

  NA   - Mulliken gross atomic population
  ZA   - Total nuclear charge
  QA   - Mulliken gross atomic charge
  VA   - Mayer's total valence
  BVA  - Mayer's bonded valence
  FA   - Mayer's free valence

  ATOM       NA         ZA         QA         VA         BVA        FA
  0 C      6.0747     6.0000    -0.0747     3.9969     3.9969     0.0000
  1 C      6.1157     6.0000    -0.1157     4.0148     4.0148     0.0000
  2 C      6.1706     6.0000    -0.1706     4.0309     4.0309     0.0000
  3 C      6.0178     6.0000    -0.0178     3.9104     3.9104    -0.0000
  4 C      6.0424     6.0000    -0.0424     3.8775     3.8775     0.0000
  5 C      5.7767     6.0000     0.2233     4.2535     4.2535     0.0000
  6 O      8.2428     8.0000    -0.2428     2.2427     2.2427     0.0000
  7 O      8.2066     8.0000    -0.2066     2.2087     2.2087    -0.0000
  8 N      7.2512     7.0000    -0.2512     3.0920     3.0920     0.0000
  9 H      0.9535     1.0000     0.0465     0.9810     0.9810    -0.0000
 10 H      0.9524     1.0000     0.0476     0.9846     0.9846     0.0000
 11 H      0.9466     1.0000     0.0534     0.9889     0.9889    -0.0000
 12 H      0.9523     1.0000     0.0477     0.9921     0.9921     0.0000
 13 H      0.9684     1.0000     0.0316     0.9771     0.9771     0.0000
 14 H      0.9603     1.0000     0.0397     0.9763     0.9763     0.0000
 15 H      0.9691     1.0000     0.0309     0.9921     0.9921     0.0000
 16 H      0.9539     1.0000     0.0461     0.9886     0.9886    -0.0000
 17 H      0.9427     1.0000     0.0573     1.0199     1.0199    -0.0000
 18 H      0.9583     1.0000     0.0417     0.9846     0.9846     0.0000
 19 H      0.8044     1.0000     0.1956     1.0135     1.0135    -0.0000
 20 H      0.8682     1.0000     0.1318     1.0008     1.0008     0.0000
 21 H      0.8714     1.0000     0.1286     0.9952     0.9952    -0.0000

  Mayer bond orders larger than 0.1
B(  0-C ,  1-C ) :   1.0937 B(  0-C ,  9-H ) :   0.9674 B(  0-C , 10-H ) :   0.9696 
B(  0-C , 11-H ) :   0.9682 B(  1-C ,  2-C ) :   1.0255 B(  1-C , 12-H ) :   0.9370 
B(  1-C , 13-H ) :   0.9438 B(  2-C ,  3-C ) :   1.0595 B(  2-C ,  4-C ) :   1.0002 
B(  2-C , 14-H ) :   0.9203 B(  3-C , 15-H ) :   0.9637 B(  3-C , 16-H ) :   0.9658 
B(  3-C , 17-H ) :   0.9546 B(  4-C ,  5-C ) :   0.8990 B(  4-C ,  8-N ) :   1.1107 
B(  4-C , 18-H ) :   0.9040 B(  5-C ,  6-O ) :   2.1145 B(  5-C ,  7-O ) :   1.1640 
B(  7-O , 19-H ) :   0.9358 B(  8-N , 20-H ) :   0.9533 B(  8-N , 21-H ) :   0.9582 


-------
TIMINGS
-------

Total SCF time: 0 days 0 hours 1 min 8 sec 

Total time                  ....      68.865 sec
Sum of individual times     ....      68.769 sec  ( 99.9%)

Fock matrix formation       ....      66.796 sec  ( 97.0%)
  XC integration            ....       5.089 sec  (  7.6% of F)
    Basis function eval.    ....       1.478 sec  ( 29.0% of XC)
    Density eval.           ....       1.413 sec  ( 27.8% of XC)
    XC-Functional eval.     ....       0.223 sec  (  4.4% of XC)
    XC-Potential eval.      ....       1.684 sec  ( 33.1% of XC)
Diagonalization             ....       0.041 sec  (  0.1%)
Density matrix formation    ....       0.004 sec  (  0.0%)
Population analysis         ....       0.033 sec  (  0.0%)
Initial guess               ....       0.375 sec  (  0.5%)
Orbital Transformation      ....       0.000 sec  (  0.0%)
Orbital Orthonormalization  ....       0.000 sec  (  0.0%)
DIIS solution               ....       0.020 sec  (  0.0%)
SOSCF solution              ....       0.024 sec  (  0.0%)
Grid generation             ....       1.476 sec  (  2.1%)

-------------------------   --------------------
FINAL SINGLE POINT ENERGY      -440.842518324156
-------------------------   --------------------

------------------------------------------------------------------------------
                         ORCA SCF GRADIENT CALCULATION
------------------------------------------------------------------------------

Gradient of the Kohn-Sham DFT energy:
Kohn-Sham wavefunction type      ... RKS
Hartree-Fock exchange scaling    ...    0.250
Number of operators              ...    1
Number of atoms                  ...   22
Basis set dimensions             ...  191
Integral neglect threshold       ... 2.5e-011
Integral primitive cutoff        ... 2.5e-012

Nuclear repulsion gradient       ... done
One Electron Gradient            
  ECP gradient                   ... done
Pre-screening matrix             ... done
Starting the two electron gradient:
Two electron gradient done
Exchange-correlation gradient    ... done

------------------
CARTESIAN GRADIENT
------------------

   1   C   :   -0.002137987    0.004178270    0.000371353
   2   C   :    0.003942651   -0.010099344   -0.000303496
   3   C   :    0.000029102    0.013998937   -0.004273474
   4   C   :   -0.000787224   -0.007959207   -0.001011672
   5   C   :    0.003275790   -0.012718788   -0.012815327
   6   C   :   -0.023133705   -0.023609819    0.007050004
   7   O   :    0.021157220    0.031027232    0.002600824
   8   O   :   -0.004904987   -0.007105101    0.007364125
   9   N   :   -0.005724069    0.000299384    0.003841032
  10   H   :    0.000009030   -0.005429065   -0.004618119
  11   H   :   -0.000023073    0.006645128   -0.002102511
  12   H   :    0.000104520   -0.004076116    0.004678506
  13   H   :   -0.004386426    0.004370531   -0.003355264
  14   H   :   -0.000980709   -0.004589032    0.001386153
  15   H   :   -0.003800528    0.003538940    0.000958000
  16   H   :    0.002481444   -0.005491147    0.000505912
  17   H   :   -0.004362803    0.003201954    0.002953242
  18   H   :   -0.001615480    0.006807078    0.006401315
  19   H   :    0.004684533   -0.001970754    0.001479789
  20   H   :    0.003863639   -0.006580235   -0.015649976
  21   H   :   -0.012683881    0.021554638    0.000911758
  22   H   :    0.024992941   -0.005993484    0.003627826

Difference to translation invariance:
           :   -0.0000000000   -0.0000000000    0.0000000000

Norm of the cartesian gradient     ...    0.0743407368
RMS gradient                       ...    0.0091507121
MAX gradient                       ...    0.0310272324

-------
TIMINGS
-------

Total SCF gradient time            ...       29.240 sec

One electron gradient       ....       0.253 sec  (  0.9%)
Prescreening matrices       ....       0.153 sec  (  0.5%)
Two electron gradient       ....      21.615 sec  ( 73.9%)
XC gradient                 ....       7.057 sec  ( 24.1%)
------------------------------------------------------------------------------
                         ORCA GEOMETRY RELAXATION STEP
------------------------------------------------------------------------------

Reading the OPT-File                    .... done
Getting information on internals        .... done
Copying old internal coords+grads       .... done
Making the new internal coordinates     .... (new redundants).... done
Validating the new internal coordinates .... (new redundants).... done
Calculating the B-matrix                .... done
Calculating the G,G- and P matrices     .... done
Transforming gradient to internals      .... done
Projecting the internal gradient        .... done
Number of atoms                         ....  22
Number of internal coordinates          .... 108
Current Energy                          ....  -440.842518324 Eh
Current gradient norm                   ....     0.074340737 Eh/bohr
Maximum allowed component of the step   ....  0.300
Current trust radius                    ....  0.300
Evaluating the initial hessian          ....  (Almloef) done
Projecting the Hessian                  .... done
Forming the augmented Hessian           .... done
Diagonalizing the augmented Hessian     .... done
Last element of RFO vector              ....  0.962012953
Lowest eigenvalues of augmented Hessian:
 -0.014248159  0.008700050  0.009567561  0.010056664  0.010690812
Length of the computed step             ....  0.283783919
The final length of the internal step   ....  0.283783919
Converting the step to cartesian space:
 Initial RMS(Int)=    0.0273071203
Transforming coordinates:
 Iter   0:  RMS(Cart)=    0.0694951933 RMS(Int)=    0.0275425677
 Iter   1:  RMS(Cart)=    0.0024954465 RMS(Int)=    0.0018557721
 Iter   2:  RMS(Cart)=    0.0003121911 RMS(Int)=    0.0001666853
 Iter   3:  RMS(Cart)=    0.0000367984 RMS(Int)=    0.0000261399
 Iter   4:  RMS(Cart)=    0.0000050681 RMS(Int)=    0.0000030781
 Iter   5:  RMS(Cart)=    0.0000006329 RMS(Int)=    0.0000004185
 Iter   6:  RMS(Cart)=    0.0000000876 RMS(Int)=    0.0000000588
done
Storing new coordinates                 .... done

                                .--------------------.
          ----------------------|Geometry convergence|-------------------------
          Item                value                   Tolerance       Converged
          ---------------------------------------------------------------------
          RMS gradient        0.0071596034            0.0001000000      NO
          MAX gradient        0.0368642830            0.0003000000      NO
          RMS step            0.0273071203            0.0020000000      NO
          MAX step            0.0952265989            0.0040000000      NO
          ........................................................
          Max(Bonds)      0.0339      Max(Angles)    4.57
          Max(Dihed)        5.46      Max(Improp)    0.00
          ---------------------------------------------------------------------

The optimization has not yet converged - more geometry cycles are needed


    ---------------------------------------------------------------------------
                         Redundant Internal Coordinates
                            (Angstroem and degrees)

        Definition                    Value    dE/dq     Step     New-Value
    ----------------------------------------------------------------------------
     1. B(C   1,C   0)                1.5315  0.001990 -0.0027    1.5287   
     2. B(C   2,C   1)                1.5525  0.009629 -0.0142    1.5382   
     3. B(C   3,C   2)                1.5453  0.010279 -0.0148    1.5305   
     4. B(C   4,C   2)                1.5668  0.011434 -0.0178    1.5490   
     5. B(C   5,C   4)                1.5275 -0.004003  0.0054    1.5329   
     6. B(O   6,C   5)                1.2219  0.036864 -0.0185    1.2033   
     7. B(O   7,C   5)                1.3508  0.014998 -0.0120    1.3388   
     8. B(N   8,C   4)                1.4687  0.018018 -0.0220    1.4467   
     9. B(H   9,C   0)                1.1109  0.006652 -0.0101    1.1007   
    10. B(H  10,C   0)                1.1105  0.006392 -0.0097    1.1008   
    11. B(H  11,C   0)                1.1076  0.005503 -0.0083    1.0993   
    12. B(H  12,C   1)                1.1071  0.003391 -0.0051    1.1020   
    13. B(H  13,C   1)                1.1120  0.004085 -0.0062    1.1057   
    14. B(H  14,C   2)                1.1128  0.004397 -0.0067    1.1060   
    15. B(H  15,C   3)                1.1110  0.005960 -0.0091    1.1020   
    16. B(H  16,C   3)                1.1076  0.004784 -0.0072    1.1004   
    17. B(H  17,C   3)                1.1098  0.008069 -0.0122    1.0976   
    18. B(H  18,C   4)                1.1132  0.003801 -0.0058    1.1073   
    19. B(H  19,O   7)                0.9664  0.003757 -0.0038    0.9626   
    20. B(H  20,N   8)                1.0463  0.023933 -0.0322    1.0141   
    21. B(H  21,N   8)                1.0465  0.025187 -0.0339    1.0126   
    22. A(H   9,C   0,H  10)          108.57  0.002524   -0.47    108.10   
    23. A(C   1,C   0,H  10)          110.29 -0.002338    0.31    110.60   
    24. A(H  10,C   0,H  11)          109.76  0.003337   -0.84    108.92   
    25. A(H   9,C   0,H  11)          107.14  0.001301    0.02    107.17   
    26. A(C   1,C   0,H   9)          109.14 -0.002575    0.57    109.71   
    27. A(C   1,C   0,H  11)          111.83 -0.002042    0.37    112.21   
    28. A(H  12,C   1,H  13)          109.32  0.001924   -0.99    108.33   
    29. A(C   2,C   1,H  13)          109.95  0.001161   -0.62    109.34   
    30. A(C   0,C   1,C   2)          114.47  0.000427    0.20    114.67   
    31. A(C   0,C   1,H  13)          108.81 -0.001111    0.19    109.00   
    32. A(C   0,C   1,H  12)          105.11 -0.003265    1.22    106.32   
    33. A(C   2,C   1,H  12)          109.00  0.000807   -0.00    109.00   
    34. A(C   1,C   2,C   4)          112.79  0.000114    0.00    112.79   
    35. A(C   4,C   2,H  14)          108.14  0.001159   -0.93    107.21   
    36. A(C   3,C   2,H  14)          107.81 -0.000673    0.30    108.11   
    37. A(C   1,C   2,H  14)          107.96  0.000719   -0.30    107.66   
    38. A(C   1,C   2,C   3)          110.64 -0.002216    0.91    111.55   
    39. A(C   3,C   2,C   4)          109.35  0.000930   -0.01    109.34   
    40. A(H  16,C   3,H  17)          105.55 -0.004079    1.31    106.85   
    41. A(H  15,C   3,H  17)          108.66  0.000770   -0.45    108.21   
    42. A(C   2,C   3,H  17)          111.13  0.002158   -0.27    110.85   
    43. A(C   2,C   3,H  16)          111.55  0.001482   -0.12    111.43   
    44. A(C   2,C   3,H  15)          110.61 -0.001239   -0.04    110.57   
    45. A(H  15,C   3,H  16)          109.17  0.000805   -0.38    108.79   
    46. A(C   2,C   4,H  18)          109.14  0.001283   -1.05    108.09   
    47. A(C   5,C   4,N   8)          109.83 -0.004174    1.40    111.23   
    48. A(C   2,C   4,C   5)          114.12  0.003947   -0.77    113.35   
    49. A(C   2,C   4,N   8)          109.15 -0.001100    0.49    109.64   
    50. A(N   8,C   4,H  18)          107.12  0.000585    0.08    107.21   
    51. A(C   5,C   4,H  18)          107.23 -0.000653   -0.14    107.10   
    52. A(C   4,C   5,O   7)          121.41  0.015900   -2.00    119.40   
    53. A(C   4,C   5,O   6)          120.23 -0.014383    2.03    122.26   
    54. A(O   6,C   5,O   7)          118.22 -0.001720    0.38    118.60   
    55. A(C   5,O   7,H  19)          122.55  0.030734   -4.57    117.98   
    56. A(H  20,N   8,H  21)          109.43  0.003377   -2.17    107.26   
    57. A(C   4,N   8,H  21)          110.22 -0.001155   -0.53    109.68   
    58. A(C   4,N   8,H  20)          110.80  0.004430   -1.46    109.34   
    59. D(H  12,C   1,C   0,H  10)    -62.15  0.000818   -0.92    -63.08   
    60. D(C   2,C   1,C   0,H   9)    176.59 -0.000058   -0.02    176.57   
    61. D(C   2,C   1,C   0,H  10)     57.40 -0.000149    0.02     57.41   
    62. D(H  13,C   1,C   0,H  11)     58.40 -0.000385    0.09     58.49   
    63. D(C   2,C   1,C   0,H  11)    -65.04 -0.001349    0.61    -64.44   
    64. D(H  13,C   1,C   0,H   9)    -59.97  0.000906   -0.54    -60.50   
    65. D(H  13,C   1,C   0,H  10)   -179.16  0.000815   -0.50   -179.66   
    66. D(H  12,C   1,C   0,H  11)    175.40 -0.000382   -0.33    175.07   
    67. D(H  12,C   1,C   0,H   9)     57.04  0.000909   -0.96     56.08   
    68. D(C   4,C   2,C   1,H  13)     58.44  0.000331    0.55     58.99   
    69. D(C   4,C   2,C   1,H  12)    -61.38 -0.003223    2.13    -59.24   
    70. D(C   4,C   2,C   1,C   0)   -178.73  0.000078    0.47   -178.26   
    71. D(C   3,C   2,C   1,H  13)    -64.39  0.000685   -0.11    -64.50   
    72. D(C   3,C   2,C   1,H  12)    175.79 -0.002869    1.47    177.26   
    73. D(H  14,C   2,C   1,H  13)    177.86  0.002320   -0.81    177.05   
    74. D(H  14,C   2,C   1,C   0)    -59.31  0.002068   -0.89    -60.20   
    75. D(C   3,C   2,C   1,C   0)     58.44  0.000432   -0.20     58.24   
    76. D(H  14,C   2,C   1,H  12)     58.04 -0.001233    0.78     58.81   
    77. D(H  17,C   3,C   2,C   4)     57.09  0.002474   -1.90     55.19   
    78. D(H  17,C   3,C   2,C   1)   -178.10  0.001745   -1.28   -179.38   
    79. D(H  16,C   3,C   2,H  14)     57.24 -0.001794    0.41     57.66   
    80. D(H  16,C   3,C   2,C   4)    174.58 -0.000286   -0.53    174.06   
    81. D(H  16,C   3,C   2,C   1)    -60.61 -0.001015    0.09    -60.51   
    82. D(H  15,C   3,C   2,C   4)    -63.70  0.000895   -1.13    -64.82   
    83. D(H  15,C   3,C   2,C   1)     61.12  0.000166   -0.51     60.61   
    84. D(H  17,C   3,C   2,H  14)    -60.25  0.000967   -0.96    -61.21   
    85. D(H  15,C   3,C   2,H  14)    178.96 -0.000613   -0.18    178.78   
    86. D(N   8,C   4,C   2,C   1)   -179.20 -0.000004   -0.47   -179.67   
    87. D(C   5,C   4,C   2,H  14)    -61.81  0.001747   -1.13    -62.94   
    88. D(C   5,C   4,C   2,C   3)   -178.94  0.001389   -0.96   -179.90   
    89. D(C   5,C   4,C   2,C   1)     57.51  0.003484   -2.12     55.38   
    90. D(H  18,C   4,C   2,H  14)    178.26 -0.000935    0.31    178.56   
    91. D(H  18,C   4,C   2,C   3)     61.13 -0.001294    0.48     61.60   
    92. D(H  18,C   4,C   2,C   1)    -62.43  0.000801   -0.69    -63.12   
    93. D(N   8,C   4,C   2,H  14)     61.49 -0.001741    0.52     62.01   
    94. D(N   8,C   4,C   2,C   3)    -55.64 -0.002099    0.69    -54.95   
    95. D(O   7,C   5,C   4,H  18)     48.73  0.000852    0.84     49.57   
    96. D(O   7,C   5,C   4,N   8)    164.80 -0.000995    1.60    166.40   
    97. D(O   7,C   5,C   4,C   2)    -72.27 -0.002798    2.76    -69.51   
    98. D(O   6,C   5,C   4,H  18)   -126.78  0.004023   -5.41   -132.19   
    99. D(O   6,C   5,C   4,N   8)    -10.71  0.002176   -4.66    -15.36   
   100. D(O   6,C   5,C   4,C   2)    112.22  0.000373   -3.50    108.72   
   101. D(H  19,O   7,C   5,O   6)    171.41 -0.003694    5.46    176.86   
   102. D(H  19,O   7,C   5,C   4)     -4.19 -0.000010   -0.75     -4.94   
   103. D(H  21,N   8,C   4,H  18)     57.08 -0.004166    1.90     58.97   
   104. D(H  21,N   8,C   4,C   5)    -59.07 -0.001545    1.28    -57.78   
   105. D(H  21,N   8,C   4,C   2)    175.12 -0.002906    0.96    176.08   
   106. D(H  20,N   8,C   4,H  18)    178.35  0.002241   -2.16    176.19   
   107. D(H  20,N   8,C   4,C   5)     62.21  0.004862   -2.77     59.43   
   108. D(H  20,N   8,C   4,C   2)    -63.61  0.003501   -3.10    -66.71   
    ----------------------------------------------------------------------------

         *************************************************************
         *                GEOMETRY OPTIMIZATION CYCLE   2            *
         *************************************************************
---------------------------------
CARTESIAN COORDINATES (ANGSTROEM)
---------------------------------
  C      0.808999   -0.064875    0.016343
  C      2.336514   -0.004698    0.027240
  C      2.934485    0.931771    1.091030
  C      2.493413    0.534304    2.501661
  C      4.481317    0.992530    1.035370
  C      5.024379    1.386878   -0.342854
  O      5.529343    2.459395   -0.549596
  O      4.905414    0.529321   -1.363986
  N      4.970402    1.882791    2.065503
  H      0.468637   -0.706808   -0.810520
  H      0.382870    0.939159   -0.132520
  H      0.403349   -0.490220    0.945345
  H      2.639683    0.347777   -0.971851
  H      2.736062   -1.025542    0.171874
  H      2.559423    1.952352    0.888416
  H      2.828498   -0.488474    2.738278
  H      1.399359    0.582704    2.609423
  H      2.917373    1.215950    3.250176
  H      4.873320   -0.017903    1.262436
  H      4.543265   -0.343567   -1.180838
  H      4.681338    2.831462    1.853846
  H      5.982897    1.872672    2.071824

----------------------------
CARTESIAN COORDINATES (A.U.)
----------------------------
  NO LB      ZA    FRAG     MASS         X           Y           Z
   0 C     6.0000    0    12.011    1.528787   -0.122595    0.030884
   1 C     6.0000    0    12.011    4.415371   -0.008878    0.051475
   2 C     6.0000    0    12.011    5.545372    1.760792    2.061747
   3 C     6.0000    0    12.011    4.711867    1.009687    4.727454
   4 C     6.0000    0    12.011    8.468463    1.875610    1.956567
   5 C     6.0000    0    12.011    9.494700    2.620819   -0.647899
   6 O     8.0000    0    15.999   10.448944    4.647584   -1.038586
   7 O     8.0000    0    15.999    9.269890    1.000271   -2.577559
   8 N     7.0000    0    14.007    9.392698    3.557960    3.903235
   9 H     1.0000    0     1.008    0.885596   -1.335674   -1.531660
  10 H     1.0000    0     1.008    0.723519    1.774754   -0.250426
  11 H     1.0000    0     1.008    0.762219   -0.926381    1.786443
  12 H     1.0000    0     1.008    4.988279    0.657204   -1.836533
  13 H     1.0000    0     1.008    5.170408   -1.937994    0.324796
  14 H     1.0000    0     1.008    4.836608    3.689410    1.678863
  15 H     1.0000    0     1.008    5.345087   -0.923081    5.174595
  16 H     1.0000    0     1.008    2.644404    1.101152    4.931095
  17 H     1.0000    0     1.008    5.513037    2.297813    6.141943
  18 H     1.0000    0     1.008    9.209240   -0.033832    2.385657
  19 H     1.0000    0     1.008    8.585526   -0.649248   -2.231461
  20 H     1.0000    0     1.008    8.846448    5.350687    3.503261
  21 H     1.0000    0     1.008   11.306036    3.538837    3.915179

--------------------------------
INTERNAL COORDINATES (ANGSTROEM)
--------------------------------
 C      0   0   0     0.000000000000     0.00000000     0.00000000
 C      1   0   0     1.528738099224     0.00000000     0.00000000
 C      2   1   0     1.538243369188   114.66541740     0.00000000
 C      3   2   1     1.530491792977   111.54732696    58.24222849
 C      3   2   1     1.549025975645   112.78138604   181.74078554
 C      5   3   2     1.532947184119   113.33794255    55.38989890
 O      6   5   3     1.203339404459   122.16826960   108.70534075
 O      6   5   3     1.338755743541   119.30758776   290.49801551
 N      5   3   2     1.446700301908   109.64200947   180.33167486
 H      1   2   3     1.100739295267   109.71095151   176.57145321
 H      1   2   3     1.100831634491   110.60049361    57.41680890
 H      1   2   3     1.099325035270   112.20435022   295.56883619
 H      2   1   3     1.101968053311   106.32136807   239.50327841
 H      2   1   3     1.105749091837   109.00430789   122.92440633
 H      3   2   1     1.106032929742   107.65268984   299.80029937
 H      4   3   2     1.101972323558   110.56737897    60.60965318
 H      4   3   2     1.100413585777   111.42980192   299.48696447
 H      4   3   2     1.097570110556   110.85230194   180.61802025
 H      5   3   2     1.107339310526   108.07993206   296.87939595
 H      8   6   5     0.962615630961   117.98011913   355.09748545
 H      9   5   3     1.014067163125   109.31123657   293.30339387
 H      9   5   3     1.012565220228   109.65404933   176.05514619

---------------------------
INTERNAL COORDINATES (A.U.)
---------------------------
 C      0   0   0     0.000000000000     0.00000000     0.00000000
 C      1   0   0     2.888896338024     0.00000000     0.00000000
 C      2   1   0     2.906858695087   114.66541740     0.00000000
 C      3   2   1     2.892210338941   111.54732696    58.24222849
 C      3   2   1     2.927234868299   112.78138604   181.74078554
 C      5   3   2     2.896850355750   113.33794255    55.38989890
 O      6   5   3     2.273981920584   122.16826960   108.70534075
[...]
     49      -0.002348  -0.018206   0.068594   0.001367   0.003317  -0.087012
     50      -0.000012  -0.015306   0.059537   0.001247   0.003349  -0.100790
     51      -0.006302  -0.044447   0.189428   0.008289   0.004581  -0.155323
     52      -0.004874  -0.053371   0.209180   0.010394   0.002615  -0.143161
     53      -0.006518  -0.065647   0.256779   0.013095   0.003316  -0.197746
     54       0.318872   0.148194   0.047673   0.001641   0.007148   0.006029
     55      -0.816147  -0.370583  -0.113583  -0.004952  -0.014434  -0.008915
     56       0.189756   0.087195   0.025988   0.000935   0.003737   0.001324
     57      -0.001613   0.000888   0.000145  -0.000803  -0.001495  -0.000071
     58      -0.006000  -0.003857  -0.001440   0.000187  -0.002846  -0.000604
     59      -0.005513  -0.002970  -0.000473   0.000148   0.000568  -0.000240
     60      -0.000510  -0.004714  -0.002187   0.000002  -0.000355  -0.000767
     61       0.010696   0.002984   0.001617   0.000227  -0.000507   0.000080
     62      -0.008005  -0.004855  -0.001566  -0.000210  -0.000576  -0.000041
     63      -0.003201  -0.002574  -0.001130   0.000055   0.000177   0.000065
     64       0.003477  -0.000578   0.000334   0.000337  -0.000280  -0.000196
     65       0.003674   0.001518  -0.000199  -0.000002   0.000023  -0.000324
                 60         61         62         63         64         65    
      0       0.002118   0.002942  -0.000359   0.000010  -0.000013   0.000016
      1       0.089263   0.021917  -0.002100   0.000002   0.000036   0.000091
      2       0.024222  -0.088370   0.004898   0.000038   0.000037  -0.000043
      3      -0.001317   0.002003  -0.000129   0.000053   0.000029   0.000162
      4       0.007529   0.006909   0.000088  -0.000081  -0.000003  -0.000552
      5      -0.004035  -0.010613   0.000547  -0.000041  -0.000124   0.000223
      6      -0.000229   0.000374  -0.000160  -0.000163  -0.000202  -0.000159
      7       0.000212  -0.000165  -0.001173   0.000005   0.000084   0.000059
      8      -0.000205   0.000105  -0.000509   0.000094   0.000052  -0.000048
      9       0.002461   0.004359  -0.069264  -0.000037  -0.000008   0.000055
     10      -0.003545  -0.011647  -0.044512   0.000047  -0.000056  -0.000049
     11      -0.001743  -0.005837  -0.042372   0.000041   0.000099   0.000003
     12      -0.000075  -0.000010  -0.000020   0.000037   0.000745   0.000179
     13       0.000044  -0.000070   0.000018   0.000919  -0.001805  -0.000797
     14      -0.000028  -0.000016  -0.000410  -0.002143  -0.000926  -0.000028
     15      -0.000031  -0.000041   0.000050  -0.000124  -0.000194   0.000529
     16       0.000087  -0.000043  -0.000137  -0.000224   0.000199   0.002250
     17       0.000076  -0.000096  -0.000082  -0.000285   0.000051  -0.001887
     18       0.000019   0.000017  -0.000006  -0.000052   0.000030  -0.000114
     19      -0.000031   0.000003   0.000018  -0.000039  -0.000090  -0.001218
     20      -0.000005   0.000030   0.000036  -0.000147   0.000089   0.000324
     21       0.000042   0.000109  -0.000008   0.000040   0.000081   0.010230
     22       0.000016   0.000074   0.000018  -0.000040   0.000033   0.055852
     23      -0.000070   0.000024   0.000003   0.000047  -0.000127  -0.025353
     24      -0.000004  -0.000076  -0.000311   0.026005   0.065882  -0.000033
     25      -0.000018  -0.000022  -0.000153   0.051413  -0.040048   0.000336
     26       0.000023   0.000061   0.000365  -0.012495   0.018751  -0.000232
     27      -0.218958   0.172274  -0.007419  -0.000035   0.000115   0.000104
     28      -0.331748   0.276396  -0.012201  -0.000145  -0.000022  -0.000032
     29      -0.520314   0.396380  -0.017745  -0.000195  -0.000034   0.000092
     30       0.276520   0.079236  -0.006284  -0.000044   0.000046  -0.000457
     31      -0.652570  -0.186970   0.014601   0.000099  -0.000140   0.000110
     32       0.045837  -0.002993  -0.000183   0.000031  -0.000017   0.000031
     33      -0.077190  -0.284722   0.018526   0.000041  -0.000029   0.000267
     34      -0.079683  -0.349178   0.022045   0.000099  -0.000003  -0.000022
     35       0.188195   0.663935  -0.042262  -0.000072  -0.000038  -0.000101
     36      -0.015308  -0.042574   0.000614  -0.000008  -0.000121  -0.000199
     37      -0.017092  -0.043732   0.001052  -0.000039  -0.000136   0.000681
     38       0.042733   0.117638  -0.001559  -0.000019   0.000567  -0.001751
     39       0.027897   0.016093  -0.000124  -0.000344   0.000115  -0.000770
     40      -0.066677  -0.038567   0.000619   0.000316   0.000340   0.004385
     41       0.007519   0.005362   0.000390  -0.000163   0.000186  -0.000774
     42      -0.000065  -0.001248  -0.000947   0.000452  -0.001470   0.000013
     43      -0.006764   0.001455   0.007866   0.000691   0.000448   0.000079
     44      -0.000695  -0.001083  -0.000825  -0.000028  -0.000470   0.000363
     45      -0.004492  -0.016071  -0.040534   0.000043   0.000014  -0.000036
     46       0.024141   0.077874   0.140991  -0.000539   0.000508   0.000427
     47      -0.003003  -0.011221  -0.024549  -0.000008  -0.000093  -0.000176
     48      -0.038692  -0.086841   0.448390  -0.000368   0.000028   0.000146
     49       0.004851   0.009832  -0.066139  -0.000060   0.000037   0.000141
     50       0.004205   0.011626  -0.067063  -0.000014  -0.000080  -0.000202
     51       0.013159   0.049011   0.426184   0.000411  -0.000674  -0.000136
     52       0.012789   0.050602   0.462758   0.000204  -0.000799  -0.000015
     53       0.017631   0.067693   0.600093  -0.000390  -0.000201   0.000075
     54       0.001265  -0.000335   0.000026   0.003465  -0.005089  -0.001880
     55      -0.001406   0.000711  -0.000700  -0.008396   0.009436   0.001909
     56       0.000477  -0.000010  -0.000062   0.001302  -0.000439  -0.001359
     57       0.000074  -0.000385  -0.000071   0.000204  -0.000419  -0.168199
     58      -0.000502  -0.000437   0.000110   0.002639  -0.002693  -0.888200
     59       0.000447   0.000001  -0.000068  -0.000470   0.001028   0.422946
     60      -0.000135   0.000126  -0.000203   0.160225  -0.072972   0.000713
     61      -0.000088  -0.000328   0.000070  -0.785781   0.487522  -0.002998
     62      -0.000012  -0.000025   0.000197   0.266923  -0.176132   0.001892
     63       0.000142  -0.000210  -0.000909  -0.522539  -0.841057   0.001012
     64       0.000039   0.000037   0.000248   0.069765   0.081295  -0.000227
     65      -0.000062   0.000086  -0.000119  -0.064332  -0.074560   0.000676


-----------
IR SPECTRUM
-----------

 Mode    freq (cm**-1)   T**2         TX         TY         TZ
-------------------------------------------------------------------
   6:        57.63    5.703433  ( -2.273258  -0.137165  -0.718970)
   7:        65.23    2.337990  (  1.312207  -0.496420  -0.608005)
   8:       106.07    0.195353  ( -0.342658   0.143242  -0.239625)
   9:       162.97    0.749912  ( -0.729282  -0.284681  -0.370158)
  10:       218.79    0.226374  (  0.231971  -0.055368   0.411701)
  11:       221.20    1.218650  (  0.919902   0.427037  -0.435971)
  12:       261.30   44.914064  (  5.080225  -4.319792  -0.666911)
  13:       275.97    7.891865  ( -2.502525   0.204615  -1.259907)
  14:       297.45   12.995784  ( -0.568188  -1.138060  -3.373094)
  15:       331.46    5.624276  (  2.104795   0.824006   0.717724)
  16:       370.57    9.907080  ( -2.076669  -0.202291  -2.356609)
  17:       414.26    7.476036  ( -2.411211   0.034713  -1.288757)
  18:       434.28    4.742634  ( -2.093395   0.589098   0.115306)
  19:       530.24  111.308838  (-10.426054   0.753452  -1.427776)
  20:       544.33    2.405386  ( -1.549106  -0.064201  -0.039185)
  21:       696.51   16.018037  ( -0.750619  -3.882011  -0.620161)
  22:       748.89    1.978200  ( -1.044173  -0.652008  -0.680284)
  23:       789.52    3.746169  (  0.547460  -0.546812   1.774106)
  24:       854.59    0.287196  (  0.104738  -0.460627   0.253079)
  25:       874.97   45.092597  (  0.064356   0.078918   6.714330)
  26:       906.60   60.443322  (  1.621914   2.467291   7.192023)
  27:       967.16    7.369196  ( -0.270076  -2.176755  -1.599372)
  28:       983.88   60.772726  ( -1.081506   2.707911   7.229819)
  29:      1020.87   12.932237  ( -1.550544   0.817027   3.140146)
  30:      1057.05    8.442933  ( -2.420670  -1.553267   0.413097)
  31:      1083.86    2.113041  ( -0.442269  -0.726588  -1.178774)
  32:      1151.66    0.910456  ( -0.895540  -0.189883  -0.269087)
  33:      1158.55   10.304264  (  2.934318   0.564079  -1.172969)
  34:      1175.37    2.761836  ( -0.663369   0.178863  -1.513204)
  35:      1182.93    3.416476  ( -1.418517   1.116753  -0.396419)
  36:      1225.37    2.063435  ( -1.346781  -0.365610   0.340506)
  37:      1267.44  101.198120  (  1.980877  -6.887671  -7.059337)
  38:      1291.99    1.736106  (  1.164635  -0.577998   0.213658)
  39:      1332.65    1.316279  ( -0.420809   0.151507   1.056525)
  40:      1342.74  147.914363  ( -3.257542   7.232198   9.219441)
  41:      1363.91  104.472091  (  3.075120  -6.826637  -6.957927)
  42:      1378.46   15.223373  (  0.730442  -2.349392  -3.028231)
  43:      1389.22   14.119235  (  2.077106   0.301511  -3.116722)
  44:      1405.30    2.462985  (  0.902826  -0.925131   0.889956)
  45:      1416.51   34.628562  ( -2.217544   2.308338   4.937878)
  46:      1459.35    3.837106  ( -0.079914  -1.935754  -0.289096)
  47:      1461.13    4.921897  (  0.457027  -1.227530  -1.790585)
  48:      1470.79    7.955863  ( -0.538874   1.623722  -2.242544)
  49:      1480.52    9.263403  ( -1.138762   2.420856   1.451233)
  50:      1484.11    6.257575  ( -2.433189   0.351928   0.461859)
  51:      1645.28   30.386506  (  3.289366   4.391499  -0.530391)
  52:      1914.43  243.240981  (  4.006202  14.453269  -4.277190)
  53:      3012.98   22.291422  (  3.215119  -3.070275  -1.589920)
  54:      3020.33    9.373780  ( -1.067369   2.842039   0.396636)
  55:      3038.87   29.035049  ( -2.599255   4.610471   1.011175)
  56:      3049.99   31.733996  (  0.698552   4.958406  -2.580742)
  57:      3059.34   20.784881  (  4.541202   0.267163   0.301639)
  58:      3100.01   10.729382  (  0.302720   2.101443  -2.494329)
  59:      3142.87   22.321599  ( -3.530256   3.139733   0.031130)
  60:      3149.11   17.946185  (  0.630917   4.081040   0.945115)
  61:      3161.00   19.323536  (  0.420439   0.733905  -4.313717)
  62:      3182.97    2.163599  ( -1.068560  -0.741413  -0.687084)
  63:      3523.08    8.529116  ( -0.968627  -2.436930   1.285399)
  64:      3609.73    8.082036  ( -1.599764   2.072607  -1.107743)
  65:      3861.46   49.972448  ( -0.869643  -6.907776   1.224252)

The first frequency considered to be a vibration is 6
The total number of vibrations considered is 60


--------------------------
THERMOCHEMISTRY AT 298.15K
--------------------------

Temperature         ... 298.15 K
Pressure            ... 1.00 atm
Total Mass          ... 131.17 AMU

Throughout the following assumptions are being made:
  (1) The electronic state is orbitally nondegenerate
  (2) There are no thermally accessible electronically excited states
  (3) Hindered rotations indicated by low frequency modes are not
      treated as such but are treated as vibrations and this may
      cause some error
  (4) All equations used are the standard statistical mechanics
      equations for an ideal gas
  (5) All vibrations are strictly harmonic

freq.      57.63  E(vib)   ...       0.51 
freq.      65.23  E(vib)   ...       0.50 
freq.     106.07  E(vib)   ...       0.45 
freq.     162.97  E(vib)   ...       0.39 
freq.     218.79  E(vib)   ...       0.33 
freq.     221.20  E(vib)   ...       0.33 
freq.     261.30  E(vib)   ...       0.30 
freq.     275.97  E(vib)   ...       0.28 
freq.     297.45  E(vib)   ...       0.27 
freq.     331.46  E(vib)   ...       0.24 
freq.     370.57  E(vib)   ...       0.21 
freq.     414.26  E(vib)   ...       0.19 
freq.     434.28  E(vib)   ...       0.17 
freq.     530.24  E(vib)   ...       0.13 
freq.     544.33  E(vib)   ...       0.12 
freq.     696.51  E(vib)   ...       0.07 
freq.     748.89  E(vib)   ...       0.06 
freq.     789.52  E(vib)   ...       0.05 
freq.     854.59  E(vib)   ...       0.04 
freq.     874.97  E(vib)   ...       0.04 
freq.     906.60  E(vib)   ...       0.03 
freq.     967.16  E(vib)   ...       0.03 
freq.     983.88  E(vib)   ...       0.02 
freq.    1020.87  E(vib)   ...       0.02 
freq.    1057.05  E(vib)   ...       0.02 
freq.    1083.86  E(vib)   ...       0.02 
freq.    1151.66  E(vib)   ...       0.01 
freq.    1158.55  E(vib)   ...       0.01 
freq.    1175.37  E(vib)   ...       0.01 
freq.    1182.93  E(vib)   ...       0.01 
freq.    1225.37  E(vib)   ...       0.01 
freq.    1267.44  E(vib)   ...       0.01 
freq.    1291.99  E(vib)   ...       0.01 
freq.    1332.65  E(vib)   ...       0.01 
freq.    1342.74  E(vib)   ...       0.01 
freq.    1363.91  E(vib)   ...       0.01 
freq.    1378.46  E(vib)   ...       0.01 
freq.    1389.22  E(vib)   ...       0.00 
freq.    1405.30  E(vib)   ...       0.00 
freq.    1416.51  E(vib)   ...       0.00 
freq.    1459.35  E(vib)   ...       0.00 
freq.    1461.13  E(vib)   ...       0.00 
freq.    1470.79  E(vib)   ...       0.00 
freq.    1480.52  E(vib)   ...       0.00 
freq.    1484.11  E(vib)   ...       0.00 
freq.    1645.28  E(vib)   ...       0.00 
freq.    1914.43  E(vib)   ...       0.00 
freq.    3012.98  E(vib)   ...       0.00 
freq.    3020.33  E(vib)   ...       0.00 
freq.    3038.87  E(vib)   ...       0.00 
freq.    3049.99  E(vib)   ...       0.00 
freq.    3059.34  E(vib)   ...       0.00 
freq.    3100.01  E(vib)   ...       0.00 
freq.    3142.87  E(vib)   ...       0.00 
freq.    3149.11  E(vib)   ...       0.00 
freq.    3161.00  E(vib)   ...       0.00 
freq.    3182.97  E(vib)   ...       0.00 
freq.    3523.08  E(vib)   ...       0.00 
freq.    3609.73  E(vib)   ...       0.00 
freq.    3861.46  E(vib)   ...       0.00 

------------
INNER ENERGY
------------

The inner energy is: U= E(el) + E(ZPE) + E(vib) + E(rot) + E(trans)
    E(el)   - is the total energy from the electronic structure calculation
              = E(kin-el) + E(nuc-el) + E(el-el) + E(nuc-nuc)
    E(ZPE)  - the the zero temperature vibrational energy from the frequency calculation
    E(vib)  - the the finite temperature correction to E(ZPE) due to population
              of excited vibrational states
    E(rot)  - is the rotational thermal energy
    E(trans)- is the translational thermal energy

Summary of contributions to the inner energy U:
Electronic energy                ...   -440.85523876 Eh
Zero point energy                ...      0.19406587 Eh     121.78 kcal/mol
Thermal vibrational correction   ...      0.00790521 Eh       4.96 kcal/mol
Thermal rotational correction    ...      0.00141627 Eh       0.89 kcal/mol
Thermal translational correction ...      0.00141627 Eh       0.89 kcal/mol
-----------------------------------------------------------------------
Total thermal energy                   -440.65043513 Eh


Summary of corrections to the electronic energy:
(perhaps to be used in another calculation)
Total thermal correction                  0.01073775 Eh       6.74 kcal/mol
Non-thermal (ZPE) correction              0.19406587 Eh     121.78 kcal/mol
-----------------------------------------------------------------------
Total correction                          0.20480362 Eh     128.52 kcal/mol


--------
ENTHALPY
--------

The enthalpy is H = U + kB*T
                kB is Boltzmann's constant
Total free energy                 ...   -440.65043513 Eh 
Thermal Enthalpy correction       ...      0.00094421 Eh       0.59 kcal/mol
-----------------------------------------------------------------------
Total Enthalpy                    ...   -440.64949092 Eh


Vibrational entropy computed according to the QRRHO of S. Grimme
Chem.Eur.J. 2012 18 9955

check  

-------
ENTROPY
-------

The entropy contributions are T*S = T*(S(el)+S(vib)+S(rot)+S(trans)
     S(el)   - electronic entropy
     S(vib)  - vibrational entropy
     S(rot)  - rotational entropy
     S(trans)- translational entropy
The entropies will be listed as mutliplied by the temperature to get
units of energy

Electronic entropy                ...      0.00000000 Eh      0.00 kcal/mol
Vibrational entropy               ...      0.01356322 Eh      8.51 kcal/mol
Rotational entropy                ...      0.01292099 Eh      8.11 kcal/mol
Translational entropy             ...      0.01925556 Eh     12.08 kcal/mol
-----------------------------------------------------------------------
Final entropy term                ...      0.04573977 Eh     28.70 kcal/mol


CAUTION: The rotational entropy is not quite correctly treated here
         because it includes a symmetry number that is not yet correctly
         implemented in ORCA!
For a nonlinear molecule the correct rotational entropy is:
    S(rot) = R*(ln(qrot/sn)+1.5)
    R    = 8.31441 J/mol/K = 1.987191683e-3 kcal/mol/K
    qrot = 587408.6171979
    sn is the rotational symmetry number. We have assumed 3 here
       if it is different for your molecule then you should correct
       the printed rotational entropy by manually evaluating the equation
       as given above

For convenience we print out the resulting values for sn=1 - 12:
 sn= 1  qrot/sn=  587408.6172 T*S(rot)=     8.76 kcal/mol T*S(tot)=    29.35 kcal/mol
 sn= 2  qrot/sn=  293704.3086 T*S(rot)=     8.35 kcal/mol T*S(tot)=    28.94 kcal/mol
 sn= 3  qrot/sn=  195802.8724 T*S(rot)=     8.11 kcal/mol T*S(tot)=    28.70 kcal/mol
 sn= 4  qrot/sn=  146852.1543 T*S(rot)=     7.94 kcal/mol T*S(tot)=    28.53 kcal/mol
 sn= 5  qrot/sn=  117481.7234 T*S(rot)=     7.81 kcal/mol T*S(tot)=    28.40 kcal/mol
 sn= 6  qrot/sn=   97901.4362 T*S(rot)=     7.70 kcal/mol T*S(tot)=    28.29 kcal/mol
 sn= 7  qrot/sn=   83915.5167 T*S(rot)=     7.61 kcal/mol T*S(tot)=    28.20 kcal/mol
 sn= 8  qrot/sn=   73426.0771 T*S(rot)=     7.53 kcal/mol T*S(tot)=    28.12 kcal/mol
 sn= 9  qrot/sn=   65267.6241 T*S(rot)=     7.46 kcal/mol T*S(tot)=    28.05 kcal/mol
 sn=10  qrot/sn=   58740.8617 T*S(rot)=     7.39 kcal/mol T*S(tot)=    27.99 kcal/mol
 sn=11  qrot/sn=   53400.7834 T*S(rot)=     7.34 kcal/mol T*S(tot)=    27.93 kcal/mol
 sn=12  qrot/sn=   48950.7181 T*S(rot)=     7.29 kcal/mol T*S(tot)=    27.88 kcal/mol


-------------------
GIBBS FREE ENTHALPY
-------------------

The Gibbs free enthalpy is G = H - T*S

Total enthalpy                    ...   -440.64949092 Eh 
Total entropy correction          ...     -0.04573977 Eh    -28.70 kcal/mol
-----------------------------------------------------------------------
Final Gibbs free enthalpy         ...   -440.69523069 Eh

For completeness - the Gibbs free enthalpy minus the electronic energy
G-E(el)                           ...      0.16000807 Eh    100.41 kcal/mol


Timings for individual modules:

Sum of individual times         ...     6369.588 sec (= 106.160 min)
GTO integral calculation        ...        4.814 sec (=   0.080 min)   0.1 %
SCF iterations                  ...      603.908 sec (=  10.065 min)   9.5 %
SCF Gradient evaluation         ...      288.570 sec (=   4.809 min)   4.5 %
Geometry relaxation             ...        3.924 sec (=   0.065 min)   0.1 %
Analytical frequency calculation...     5468.372 sec (=  91.140 min)  85.9 %
                             ****ORCA TERMINATED NORMALLY****
TOTAL RUN TIME: 0 days 1 hours 46 minutes 13 seconds 25 msec
