
                                 *****************
                                 * O   R   C   A *
                                 *****************

           --- An Ab Initio, DFT and Semiempirical electronic structure package ---

                  #######################################################
                  #                        -***-                        #
                  #  Department of molecular theory and spectroscopy    #
                  #              Directorship: Frank Neese              #
                  # Max Planck Institute for Chemical Energy Conversion #
                  #                  D-45470 Muelheim/Ruhr              #
                  #                       Germany                       #
                  #                                                     #
                  #                  All rights reserved                #
                  #                        -***-                        #
                  #######################################################


                         Program Version 4.0.0 -  RELEASE  -


 With contributions from (in alphabetic order):
   Daniel Aravena         : Magnetic Properties
   Michael Atanasov       : Ab Initio Ligand Field Theory
   Ute Becker             : Parallelization
   Martin Brehm           : Molecular dynamics
   Dmytro Bykov           : SCF Hessian
   Vijay G. Chilkuri      : MRCI spin determinant printing
   Dipayan Datta          : RHF DLPNO-CCSD density
   Achintya Kumar Dutta   : EOM-CC, STEOM-CC
   Dmitry Ganyushin       : Spin-Orbit,Spin-Spin,Magnetic field MRCI
   Yang Guo               : DLPNO-NEVPT2, CIM, IAO-localization
   Andreas Hansen         : Spin unrestricted coupled pair/coupled cluster methods
   Lee Huntington         : MR-EOM, pCC
   Robert Izsak           : Overlap fitted RIJCOSX, COSX-SCS-MP3, EOM
   Christian Kollmar      : KDIIS, OOCD, Brueckner-CCSD(T), CCSD density
   Simone Kossmann        : Meta GGA functionals, TD-DFT gradient, OOMP2, MP2 Hessian
   Martin Krupicka        : AUTO-CI
   Dagmar Lenk            : GEPOL surface
   Dimitrios Liakos       : Extrapolation schemes; parallel MDCI
   Dimitrios Manganas     : ROCIS; embedding schemes
   Dimitrios Pantazis     : SARC Basis sets
   Taras Petrenko         : DFT Hessian,TD-DFT gradient, ASA, ECA, R-Raman, ABS, FL, XAS/XES, NRVS
   Peter Pinski           : DLPNO-MP2
   Christoph Reimann      : Effective Core Potentials
   Marius Retegan         : Local ZFS, SOC
   Christoph Riplinger    : Optimizer, TS searches, QM/MM, DLPNO-CCSD(T), (RO)-DLPNO pert. Triples
   Tobias Risthaus        : Range-separated hybrids, TD-DFT gradient, RPA, STAB
   Michael Roemelt        : Restricted open shell CIS
   Masaaki Saitow         : Open-shell DLPNO
   Barbara Sandhoefer     : DKH picture change effects
   Kantharuban Sivalingam : CASSCF convergence, NEVPT2, FIC-MRCI
   Georgi Stoychev        : AutoAux
   Boris Wezisla          : Elementary symmetry handling
   Frank Wennmohs         : Technical directorship


 We gratefully acknowledge several colleagues who have allowed us to
 interface, adapt or use parts of their codes:
   Stefan Grimme, W. Hujo, H. Kruse,             : VdW corrections, initial TS optimization,
                  C. Bannwarth                     DFT functionals, gCP, sTDA/sTD-DF
   Ed Valeev                                     : LibInt (2-el integral package), F12 methods
   Garnet Chan, S. Sharma, J. Yang, R. Olivares  : DMRG
   Ulf Ekstrom                                   : XCFun DFT Library
   Mihaly Kallay                                 : mrcc  (arbitrary order and MRCC methods)
   Jiri Pittner, Ondrej Demel                    : Mk-CCSD
   Frank Weinhold                                : gennbo (NPA and NBO analysis)
   Christopher J. Cramer and Donald G. Truhlar   : smd solvation model


 Your calculation uses the libint2 library for the computation of 2-el integrals
 For citations please refer to: http://libint.valeyev.net

 This ORCA versions uses:
   CBLAS   interface :  Fast vector & matrix operations
   LAPACKE interface :  Fast linear algebra routines




*****************************************
The coordinations will be read from file: alanine.xyz
*****************************************


Your calculation utilizes the basis: def2-SVP
   F. Weigend and R. Ahlrichs, Phys. Chem. Chem. Phys. 7, 3297 (2005).

================================================================================
                                        WARNINGS
                       Please study these warnings very carefully!
================================================================================

Warning: TCutStore was < 0. Adjusted to Thresh (uncritical)

WARNING: Geometry Optimization
  ===> : Switching off AutoStart
         For restart on a previous wavefunction, please use MOREAD

INFO   : the flag for use of LIBINT has been found!

================================================================================
                                       INPUT FILE
================================================================================
NAME = alanine.inp
|  1> ! PBE0
|  2> ! opt anfreq
|  3> * xyzfile 0 1 alanine.xyz **                         ****END OF INPUT****
================================================================================

                       *****************************
                       * Geometry Optimization Run *
                       *****************************

Geometry optimization settings:
Update method            Update   .... BFGS
Choice of coordinates    CoordSys .... Redundant Internals
Initial Hessian          InHess   .... Almoef's Model

Convergence Tolerances:
Energy Change            TolE     .... 5.0000e-006 Eh
Max. Gradient            TolMAXG  .... 3.0000e-004 Eh/bohr
RMS Gradient             TolRMSG  .... 1.0000e-004 Eh/bohr
Max. Displacement        TolMAXD  .... 4.0000e-003 bohr
RMS Displacement         TolRMSD  .... 2.0000e-003 bohr

------------------------------------------------------------------------------
                        ORCA OPTIMIZATION COORDINATE SETUP
------------------------------------------------------------------------------

The optimization will be done in new redundant internal coordinates
Making redundant internal coordinates   ...  (new redundants) done
Evaluating the initial hessian          ...  (Almloef) done
Evaluating the coordinates              ...  done
Calculating the B-matrix                .... done
Calculating the G-matrix                .... done
Diagonalizing the G-matrix              .... done
The first mode is                       ....   21
The number of degrees of freedom        ....   33

    -----------------------------------------------------------------
                    Redundant Internal Coordinates


    -----------------------------------------------------------------
         Definition                    Initial Value    Approx d2E/dq
    -----------------------------------------------------------------
      1. B(C   1,C   0)                  1.5310         0.372214   
      2. B(C   2,C   1)                  1.5184         0.389810   
      3. B(O   3,C   2)                  1.2215         1.039284   
      4. B(O   4,C   2)                  1.3507         0.646546   
      5. B(N   5,C   1)                  1.4659         0.423469   
      6. B(H   6,C   0)                  1.1100         0.334540   
      7. B(H   7,C   0)                  1.1112         0.333104   
      8. B(H   8,C   0)                  1.1107         0.333686   
      9. B(H   9,C   1)                  1.1122         0.331902   
     10. B(H  10,O   4)                  0.9670         0.506812   
     11. B(H  11,N   5)                  1.0467         0.378152   
     12. B(H  12,N   5)                  1.0462         0.378761   
     13. A(H   6,C   0,H   8)          108.0003         0.284110   
     14. A(H   6,C   0,H   7)          108.8064         0.284033   
     15. A(C   1,C   0,H   6)          110.9071         0.320239   
     16. A(H   7,C   0,H   8)          108.7610         0.283921   
     17. A(C   1,C   0,H   8)          109.7916         0.320105   
     18. A(C   1,C   0,H   7)          110.5084         0.320014   
     19. A(C   2,C   1,H   9)          108.2581         0.322251   
     20. A(C   0,C   1,H   9)          108.4043         0.319825   
     21. A(C   2,C   1,N   5)          111.7586         0.371633   
     22. A(C   0,C   1,N   5)          109.3007         0.368694   
     23. A(C   0,C   1,C   2)          110.7674         0.365777   
     24. A(N   5,C   1,H   9)          108.2551         0.324709   
     25. A(C   1,C   2,O   4)          120.5569         0.400042   
     26. A(C   1,C   2,O   3)          120.6177         0.435318   
     27. A(O   3,C   2,O   4)          118.8207         0.474144   
     28. A(C   2,O   4,H  10)          122.0346         0.371156   
     29. A(H  11,N   5,H  12)          109.0048         0.290650   
     30. A(C   1,N   5,H  12)          109.8178         0.329031   
     31. A(C   1,N   5,H  11)          110.4882         0.328943   
     32. D(H   9,C   1,C   0,H   6)    -58.9534         0.011067   
     33. D(N   5,C   1,C   0,H   7)     62.4981         0.011067   
     34. D(H   9,C   1,C   0,H   8)     60.3238         0.011067   
     35. D(H   9,C   1,C   0,H   7)   -179.7061         0.011067   
     36. D(C   2,C   1,C   0,H   8)    178.9640         0.011067   
     37. D(N   5,C   1,C   0,H   8)    -57.4719         0.011067   
     38. D(N   5,C   1,C   0,H   6)   -176.7492         0.011067   
     39. D(C   2,C   1,C   0,H   7)    -61.0659         0.011067   
     40. D(C   2,C   1,C   0,H   6)     59.6868         0.011067   
     41. D(O   4,C   2,C   1,N   5)    177.2523         0.011305   
     42. D(O   4,C   2,C   1,C   0)    -60.6093         0.011305   
     43. D(O   3,C   2,C   1,H   9)   -121.0845         0.011305   
     44. D(O   3,C   2,C   1,N   5)     -1.9516         0.011305   
     45. D(O   4,C   2,C   1,H   9)     58.1195         0.011305   
     46. D(O   3,C   2,C   1,C   0)    120.1868         0.011305   
     47. D(H  10,O   4,C   2,O   3)    178.5703         0.030867   
     48. D(H  10,O   4,C   2,C   1)     -0.6478         0.030867   
     49. D(H  12,N   5,C   1,C   2)    -60.3766         0.015290   
     50. D(H  12,N   5,C   1,C   0)    176.6473         0.015290   
     51. D(H  11,N   5,C   1,H   9)    179.0346         0.015290   
     52. D(H  11,N   5,C   1,C   2)     59.9000         0.015290   
     53. D(H  12,N   5,C   1,H   9)     58.7579         0.015290   
     54. D(H  11,N   5,C   1,C   0)    -63.0761         0.015290   
    -----------------------------------------------------------------

Number of atoms                         .... 13
Number of degrees of freedom            .... 54

         *************************************************************
         *                GEOMETRY OPTIMIZATION CYCLE   1            *
         *************************************************************
---------------------------------
CARTESIAN COORDINATES (ANGSTROEM)
---------------------------------
  C      1.075230    0.038040    0.040010
  C      2.605850    0.045020    0.006920
  C      3.115520   -0.256290   -1.391310
  O      3.813960    0.550200   -1.986100
  O      2.817540   -1.428220   -1.993090
  N      3.095180    1.336990    0.496980
  H      0.676790   -0.950190   -0.271180
  H      0.667610    0.818300   -0.638100
  H      0.720440    0.241440    1.072720
  H      2.975500   -0.749890    0.691360
  H      2.285770   -2.108040   -1.557090
  H      2.780030    2.111040   -0.133160
  H      4.140830    1.330250    0.531670

----------------------------
CARTESIAN COORDINATES (A.U.)
----------------------------
  NO LB      ZA    FRAG     MASS         X           Y           Z
   0 C     6.0000    0    12.011    2.031890    0.071885    0.075608
   1 C     6.0000    0    12.011    4.924343    0.085075    0.013077
   2 C     6.0000    0    12.011    5.887480   -0.484318   -2.629195
   3 O     8.0000    0    15.999    7.207340    1.039727   -3.753185
   4 O     8.0000    0    15.999    5.324379   -2.698945   -3.766394
   5 N     7.0000    0    14.007    5.849043    2.526545    0.939156
   6 H     1.0000    0     1.008    1.278948   -1.795599   -0.512456
   7 H     1.0000    0     1.008    1.261600    1.546363   -1.205834
   8 H     1.0000    0     1.008    1.361434    0.456255    2.027147
   9 H     1.0000    0     1.008    5.622880   -1.417087    1.306481
  10 H     1.0000    0     1.008    4.319479   -3.983618   -2.942474
  11 H     1.0000    0     1.008    5.253495    3.989287   -0.251636
  12 H     1.0000    0     1.008    7.825035    2.513808    1.004711

--------------------------------
INTERNAL COORDINATES (ANGSTROEM)
--------------------------------
 C      0   0   0     0.000000000000     0.00000000     0.00000000
 C      1   0   0     1.530993550901     0.00000000     0.00000000
 C      2   1   0     1.518419690962   110.76735081     0.00000000
 O      3   2   1     1.221482581865   120.61768481   120.18677294
 O      3   2   1     1.350685445876   120.55693364   299.39070416
 N      2   1   3     1.465874869626   109.30067317   123.56400736
 H      1   2   3     1.110041522917   110.90709346    59.68683098
 H      1   2   3     1.111212357788   110.50837809   298.93411730
 H      1   2   3     1.110737344380   109.79164708   178.96404796
 H      2   1   3     1.112196540275   108.40428128   241.35979838
 H      5   3   2     0.966969785102   122.03463793   359.35223862
 H      6   2   1     1.046684930913   110.48820899   296.92392725
 H      6   2   1     1.046246981453   109.81782882   176.64727736

---------------------------
INTERNAL COORDINATES (A.U.)
---------------------------
 C      0   0   0     0.000000000000     0.00000000     0.00000000
 C      1   0   0     2.893158524002     0.00000000     0.00000000
 C      2   1   0     2.869397372271   110.76735081     0.00000000
 O      3   2   1     2.308267557080   120.61768481   120.18677294
 O      3   2   1     2.552425585778   120.55693364   299.39070416
 N      2   1   3     2.770102050190   109.30067317   123.56400736
 H      1   2   3     2.097674475594   110.90709346    59.68683098
 H      1   2   3     2.099887032848   110.50837809   298.93411730
 H      1   2   3     2.098989387597   109.79164708   178.96404796
 H      2   1   3     2.101746868215   108.40428128   241.35979838
 H      5   3   2     1.827308073619   122.03463793   359.35223862
 H      6   2   1     1.977947867928   110.48820899   296.92392725
 H      6   2   1     1.977120263388   109.81782882   176.64727736

---------------------
BASIS SET INFORMATION
---------------------
There are 4 groups of distinct atoms

 Group   1 Type C   : 7s4p1d contracted to 3s2p1d pattern {511/31/1}
 Group   2 Type O   : 7s4p1d contracted to 3s2p1d pattern {511/31/1}
 Group   3 Type N   : 7s4p1d contracted to 3s2p1d pattern {511/31/1}
 Group   4 Type H   : 4s1p contracted to 2s1p pattern {31/1}

Atom   0C    basis set group =>   1
Atom   1C    basis set group =>   1
Atom   2C    basis set group =>   1
Atom   3O    basis set group =>   2
Atom   4O    basis set group =>   2
Atom   5N    basis set group =>   3
Atom   6H    basis set group =>   4
Atom   7H    basis set group =>   4
Atom   8H    basis set group =>   4
Atom   9H    basis set group =>   4
Atom  10H    basis set group =>   4
Atom  11H    basis set group =>   4
Atom  12H    basis set group =>   4
-------------------------
ECP PARAMETER INFORMATION
-------------------------



------------------------------------------------------------------------------
                           ORCA GTO INTEGRAL CALCULATION
------------------------------------------------------------------------------

                         BASIS SET STATISTICS AND STARTUP INFO

 # of primitive gaussian shells          ...  107
 # of primitive gaussian functions       ...  193
 # of contracted shells                  ...   57
 # of contracted basis functions         ...  119
 Highest angular momentum                ...    2
 Maximum contraction depth               ...    5
 Integral package used                   ... LIBINT
 Integral threshhold            Thresh   ... 2.500e-011
 Primitive cut-off              TCut     ... 2.500e-012


------------------------------ INTEGRAL EVALUATION ----------------------------


 * One electron integrals 

   ECP integrals                          Pre-screening matrix                    ... done
 Shell pair data                         ... done (   0.000 sec)

Timings:
 Total evaluation time               ...     0.004 sec (   0.000 min)
 One electron matrix time            ...     0.012 sec (   0.000 min) =300.0%
 Schwartz matrix evaluation time     ...     0.080 sec (   0.001 min) =2000.0%

-------------------------------------------------------------------------------
                                 ORCA SCF
-------------------------------------------------------------------------------

------------
SCF SETTINGS
------------
Hamiltonian:
 Density Functional     Method          .... DFT(GTOs)
 Exchange Functional    Exchange        .... PBE
   PBE kappa parameter   XKappa         ....  0.804000
   PBE mue parameter    XMuePBE         ....  0.219520
 Correlation Functional Correlation     .... PBE
   PBE beta parameter  CBetaPBE         ....  0.066725
 LDA part of GGA corr.  LDAOpt          .... PW91-LDA
 Gradients option       PostSCFGGA      .... off
 Hybrid DFT is turned on
   Fraction HF Exchange ScalHFX         ....  0.250000
   Scaling of DF-GGA-X  ScalDFX         ....  0.750000
   Scaling of DF-GGA-C  ScalDFC         ....  1.000000
   Scaling of DF-LDA-C  ScalLDAC        ....  1.000000
   Perturbative correction              ....  0.000000
   NL short-range parameter             ....  6.900000


General Settings:
 Integral files         IntName         .... alanine
 Hartree-Fock type      HFTyp           .... RHF
 Total Charge           Charge          ....    0
 Multiplicity           Mult            ....    1
 Number of Electrons    NEL             ....   48
 Basis Dimension        Dim             ....  119
 Nuclear Repulsion      ENuc            ....    248.1904616498 Eh

Convergence Acceleration:
 DIIS                   CNVDIIS         .... on
   Start iteration      DIISMaxIt       ....    12
   Startup error        DIISStart       ....  0.200000
   # of expansion vecs  DIISMaxEq       ....     5
   Bias factor          DIISBfac        ....   1.050
   Max. coefficient     DIISMaxC        ....  10.000
 Newton-Raphson         CNVNR           .... off
 SOSCF                  CNVSOSCF        .... on
   Start iteration      SOSCFMaxIt      ....   150
   Startup grad/error   SOSCFStart      ....  0.003300
 Level Shifting         CNVShift        .... on
   Level shift para.    LevelShift      ....    0.2500
   Turn off err/grad.   ShiftErr        ....    0.0010
 Zerner damping         CNVZerner       .... off
 Static damping         CNVDamp         .... on
   Fraction old density DampFac         ....    0.7000
   Max. Damping (<1)    DampMax         ....    0.9800
   Min. Damping (>=0)   DampMin         ....    0.0000
   Turn off err/grad.   DampErr         ....    0.1000
 Fernandez-Rico         CNVRico         .... off

SCF Procedure:
 Maximum # iterations   MaxIter         ....   125
 SCF integral mode      SCFMode         .... Direct
   Integral package                     .... LIBINT
 Reset frequeny         DirectResetFreq ....    20
 Integral Threshold     Thresh          .... 2.500e-011 Eh
 Primitive CutOff       TCut            .... 2.500e-012 Eh

Convergence Tolerance:
 Convergence Check Mode ConvCheckMode   .... Total+1el-Energy
 Convergence forced     ConvForced      .... 0
 Energy Change          TolE            .... 1.000e-008 Eh
 1-El. energy change                    .... 1.000e-005 Eh
 Orbital Gradient       TolG            .... 1.000e-005
 Orbital Rotation angle TolX            .... 1.000e-005
 DIIS Error             TolErr          .... 5.000e-007


Diagonalization of the overlap matrix:
Smallest eigenvalue                        ... 1.637e-003
Time for diagonalization                   ...    0.003 sec
Threshold for overlap eigenvalues          ... 1.000e-008
Number of eigenvalues below threshold      ... 0
Time for construction of square roots      ...    0.001 sec
Total time needed                          ...    0.004 sec

-------------------
DFT GRID GENERATION
-------------------

General Integration Accuracy     IntAcc      ...  4.340
Radial Grid Type                 RadialGrid  ... Gauss-Chebyshev
Angular Grid (max. acc.)         AngularGrid ... Lebedev-110
Angular grid pruning method      GridPruning ... 3 (G Style)
Weight generation scheme         WeightScheme... Becke
Basis function cutoff            BFCut       ...   1.0000e-011
Integration weight cutoff        WCut        ...   1.0000e-014
Grids for H and He will be reduced by one unit

# of grid points (after initial pruning)     ...  15660 (   0.0 sec)
# of grid points (after weights+screening)   ...  14671 (   0.0 sec)
nearest neighbour list constructed           ...    0.0 sec
Grid point re-assignment to atoms done       ...    0.0 sec
Grid point division into batches done        ...    0.0 sec
Reduced shell lists constructed in    0.1 sec

Total number of grid points                  ...    14671
Total number of batches                      ...      236
Average number of points per batch           ...       62
Average number of grid points per atom       ...     1129
Average number of shells per batch           ...    44.81 (78.61%)
Average number of basis functions per batch  ...    92.91 (78.07%)
Average number of large shells per batch     ...    36.20 (80.80%)
Average number of large basis fcns per batch ...    72.68 (78.23%)
Maximum spatial batch extension              ...  20.08, 25.61, 19.99 au
Average spatial batch extension              ...   3.77,  3.74,  3.91 au

Time for grid setup =    0.104 sec

------------------------------
INITIAL GUESS: MODEL POTENTIAL
------------------------------
Loading Hartree-Fock densities                     ... done
Calculating cut-offs                               ... done
Setting up the integral package                    ... done
Initializing the effective Hamiltonian             ... done
Starting the Coulomb interaction                   ... done (   0.0 sec)
Reading the grid                                   ... done
Mapping shells                                     ... done
Starting the XC term evaluation                    ... done (   0.1 sec)
  promolecular density results
     # of electrons  =     47.988717205
     EX              =    -40.217797131
     EC              =     -1.589245924
     EX+EC           =    -41.807043055
Transforming the Hamiltonian                       ... done (   0.0 sec)
Diagonalizing the Hamiltonian                      ... done (   0.0 sec)
Back transforming the eigenvectors                 ... done (   0.0 sec)
Now organizing SCF variables                       ... done
                      ------------------
                      INITIAL GUESS DONE (   0.3 sec)
                      ------------------
--------------
SCF ITERATIONS
--------------
ITER       Energy         Delta-E        Max-DP      RMS-DP      [F,P]     Damp
               ***  Starting incremental Fock matrix formation  ***
  0   -322.8954743480   0.000000000000 0.10978386  0.00364531  0.2489089 0.7000
  1   -323.0110021859  -0.115527837946 0.07303878  0.00228117  0.1019898 0.7000
                               ***Turning on DIIS***
  2   -323.0517221758  -0.040719989813 0.07028084  0.00306404  0.0363856 0.0000
  3   -323.1198121270  -0.068089951212 0.05776855  0.00163824  0.0583500 0.0000
  4   -323.1337246520  -0.013912525049 0.01191556  0.00043318  0.0114877 0.0000
  5   -323.1345935796  -0.000868927583 0.00515857  0.00014103  0.0046081 0.0000
                      *** Initiating the SOSCF procedure ***
                           *** Shutting down DIIS ***
                      *** Re-Reading the Fockian *** 
                      *** Removing any level shift *** 
ITER      Energy       Delta-E        Grad      Rot      Max-DP    RMS-DP
  6   -323.13463680  -0.0000432174  0.000285  0.000285  0.000872  0.000042
               *** Restarting incremental Fock matrix formation ***
  7   -323.13464146  -0.0000046644  0.000149  0.000468  0.000641  0.000029
  8   -323.13464168  -0.0000002140  0.000165  0.000254  0.000275  0.000011
  9   -323.13464220  -0.0000005230  0.000053  0.000115  0.000102  0.000006
 10   -323.13464218   0.0000000187  0.000065  0.000064  0.000071  0.000003
 11   -323.13464222  -0.0000000443  0.000008  0.000015  0.000041  0.000001
 12   -323.13464222   0.0000000002  0.000008  0.000007  0.000021  0.000001
                  ***Gradient check signals convergence***
              ***Rediagonalizing the Fockian in SOSCF/NRSCF***

               *****************************************************
               *                     SUCCESS                       *
               *           SCF CONVERGED AFTER  13 CYCLES          *
               *****************************************************

Setting up the final grid:

General Integration Accuracy     IntAcc      ...  4.670
Radial Grid Type                 RadialGrid  ... Gauss-Chebyshev
Angular Grid (max. acc.)         AngularGrid ... Lebedev-302
Angular grid pruning method      GridPruning ... 3 (G Style)
Weight generation scheme         WeightScheme... Becke
Basis function cutoff            BFCut       ...   1.0000e-011
Integration weight cutoff        WCut        ...   1.0000e-014
Grids for H and He will be reduced by one unit

# of grid points (after initial pruning)     ...  61030 (   0.0 sec)
# of grid points (after weights+screening)   ...  56499 (   0.1 sec)
nearest neighbour list constructed           ...    0.0 sec
Grid point re-assignment to atoms done       ...    0.0 sec
Grid point division into batches done        ...    0.2 sec
Reduced shell lists constructed in    0.4 sec

Total number of grid points                  ...    56499
Total number of batches                      ...      889
Average number of points per batch           ...       63
Average number of grid points per atom       ...     4346
Average number of shells per batch           ...    41.10 (72.10%)
Average number of basis functions per batch  ...    84.40 (70.92%)
Average number of large shells per batch     ...    32.60 (79.33%)
Average number of large basis fcns per batch ...    64.77 (76.75%)
Maximum spatial batch extension              ...  19.50, 16.45, 17.38 au
Average spatial batch extension              ...   2.49,  2.51,  2.60 au

Final grid set up in    0.5 sec
Final integration                            ... done (   0.5 sec)
Change in XC energy                          ...    -0.000254232
Integrated number of electrons               ...    48.000021800
Previous integrated no of electrons          ...    47.995879872

----------------
TOTAL SCF ENERGY
----------------

Total Energy       :         -323.13489646 Eh           -8792.94756 eV

Components:
Nuclear Repulsion  :          248.19046165 Eh            6753.60581 eV
Electronic Energy  :         -571.32535811 Eh          -15546.55337 eV
One Electron Energy:         -932.09789352 Eh          -25363.67315 eV
Two Electron Energy:          360.77253541 Eh            9817.11978 eV

Virial components:
Potential Energy   :         -643.28150507 Eh          -17504.57967 eV
Kinetic Energy     :          320.14660861 Eh            8711.63211 eV
Virial Ratio       :            2.00933412


DFT components:
N(Alpha)           :       24.000010900199 electrons
N(Beta)            :       24.000010900199 electrons
N(Total)           :       48.000021800398 electrons
E(X)               :      -30.691004913962 Eh       
E(C)               :       -1.610762275257 Eh       
E(XC)              :      -32.301767189219 Eh       

---------------
SCF CONVERGENCE
---------------

  Last Energy change         ...  -1.7758e-009  Tolerance :  1.0000e-008
  Last MAX-Density change    ...   3.9505e-006  Tolerance :  1.0000e-007
  Last RMS-Density change    ...   1.1928e-007  Tolerance :  5.0000e-009
  Last Orbital Gradient      ...   5.3417e-007  Tolerance :  1.0000e-005
  Last Orbital Rotation      ...   9.3399e-007  Tolerance :  1.0000e-005

             **** THE GBW FILE WAS UPDATED (alanine.gbw) ****
             **** DENSITY FILE WAS UPDATED (alanine.scfp.tmp) ****
             **** ENERGY FILE WAS UPDATED (alanine.en.tmp) ****
----------------
ORBITAL ENERGIES
----------------

  NO   OCC          E(Eh)            E(eV) 
   0   2.0000     -19.259716      -524.0835 
   1   2.0000     -19.192365      -522.2508 
   2   2.0000     -14.377163      -391.2225 
   3   2.0000     -10.361087      -281.9395 
   4   2.0000     -10.285821      -279.8914 
   5   2.0000     -10.251285      -278.9516 
   6   2.0000      -1.115696       -30.3596 
   7   2.0000      -1.027498       -27.9596 
   8   2.0000      -0.902496       -24.5582 
   9   2.0000      -0.768006       -20.8985 
  10   2.0000      -0.677436       -18.4340 
  11   2.0000      -0.639113       -17.3912 
  12   2.0000      -0.546534       -14.8720 
  13   2.0000      -0.515462       -14.0264 
  14   2.0000      -0.474350       -12.9077 
  15   2.0000      -0.457584       -12.4515 
  16   2.0000      -0.442256       -12.0344 
  17   2.0000      -0.416353       -11.3296 
  18   2.0000      -0.396990       -10.8027 
  19   2.0000      -0.393227       -10.7003 
  20   2.0000      -0.378134       -10.2896 
  21   2.0000      -0.330801        -9.0016 
  22   2.0000      -0.285159        -7.7596 
  23   2.0000      -0.255571        -6.9544 
  24   0.0000       0.008256         0.2247 
  25   0.0000       0.032328         0.8797 
  26   0.0000       0.079250         2.1565 
  27   0.0000       0.094752         2.5783 
  28   0.0000       0.114480         3.1152 
  29   0.0000       0.136751         3.7212 
  30   0.0000       0.145320         3.9543 
  31   0.0000       0.160827         4.3763 
  32   0.0000       0.205572         5.5939 
  33   0.0000       0.230197         6.2640 
  34   0.0000       0.239883         6.5275 
  35   0.0000       0.328165         8.9298 
  36   0.0000       0.380291        10.3482 
  37   0.0000       0.410731        11.1766 
  38   0.0000       0.437649        11.9090 
  39   0.0000       0.470081        12.7915 
  40   0.0000       0.475570        12.9409 
  41   0.0000       0.549400        14.9499 
  42   0.0000       0.584488        15.9047 
  43   0.0000       0.591342        16.0912 
  44   0.0000       0.606882        16.5141 
  45   0.0000       0.627354        17.0712 
  46   0.0000       0.643478        17.5099 
  47   0.0000       0.648612        17.6496 
  48   0.0000       0.655698        17.8425 
  49   0.0000       0.669308        18.2128 
  50   0.0000       0.681244        18.5376 
  51   0.0000       0.686931        18.6924 
  52   0.0000       0.707000        19.2385 
  53   0.0000       0.717766        19.5314 
  54   0.0000       0.820169        22.3179 
  55   0.0000       0.835699        22.7405 
  56   0.0000       0.849728        23.1223 
  57   0.0000       0.918564        24.9954 
  58   0.0000       0.967957        26.3395 
  59   0.0000       0.986939        26.8560 
  60   0.0000       1.025283        27.8994 
  61   0.0000       1.030551        28.0427 
  62   0.0000       1.075119        29.2555 
  63   0.0000       1.153282        31.3824 
  64   0.0000       1.218339        33.1527 
  65   0.0000       1.257995        34.2318 
  66   0.0000       1.271050        34.5870 
  67   0.0000       1.317590        35.8534 
  68   0.0000       1.342494        36.5311 
  69   0.0000       1.384688        37.6793 
  70   0.0000       1.413173        38.4544 
  71   0.0000       1.472164        40.0596 
  72   0.0000       1.512082        41.1458 
  73   0.0000       1.571190        42.7543 
  74   0.0000       1.623103        44.1669 
  75   0.0000       1.660972        45.1974 
  76   0.0000       1.691186        46.0195 
  77   0.0000       1.731973        47.1294 
  78   0.0000       1.744504        47.4704 
  79   0.0000       1.749369        47.6027 
  80   0.0000       1.780528        48.4506 
  81   0.0000       1.783701        48.5370 
  82   0.0000       1.812366        49.3170 
  83   0.0000       1.848359        50.2964 
  84   0.0000       1.875883        51.0454 
  85   0.0000       1.895010        51.5658 
  86   0.0000       1.921562        52.2884 
  87   0.0000       1.982160        53.9373 
  88   0.0000       2.019235        54.9462 
  89   0.0000       2.045307        55.6556 
  90   0.0000       2.084058        56.7101 
  91   0.0000       2.124648        57.8146 
  92   0.0000       2.195232        59.7353 
  93   0.0000       2.243438        61.0470 
  94   0.0000       2.264249        61.6134 
  95   0.0000       2.316103        63.0244 
  96   0.0000       2.381754        64.8108 
  97   0.0000       2.431684        66.1695 
  98   0.0000       2.518039        68.5193 
  99   0.0000       2.527334        68.7723 
 100   0.0000       2.653350        72.2013 
 101   0.0000       2.704122        73.5829 
 102   0.0000       2.717550        73.9483 
 103   0.0000       2.744790        74.6895 
 104   0.0000       2.795031        76.0566 
 105   0.0000       2.822562        76.8058 
 106   0.0000       2.851969        77.6060 
 107   0.0000       2.901937        78.9657 
 108   0.0000       2.930929        79.7546 
 109   0.0000       2.973017        80.8999 
 110   0.0000       3.037806        82.6629 
 111   0.0000       3.050571        83.0103 
 112   0.0000       3.179227        86.5112 
 113   0.0000       3.239054        88.1391 
 114   0.0000       3.289735        89.5183 
 115   0.0000       3.375979        91.8651 
 116   0.0000       3.501028        95.2678 
 117   0.0000       3.645947        99.2113 
 118   0.0000       3.821623       103.9916 

                    ********************************
                    * MULLIKEN POPULATION ANALYSIS *
                    ********************************

-----------------------
MULLIKEN ATOMIC CHARGES
-----------------------
   0 C :   -0.047431
   1 C :   -0.120954
   2 C :    0.211886
   3 O :   -0.242634
   4 O :   -0.208382
   5 N :   -0.258494
   6 H :    0.026639
   7 H :    0.056447
   8 H :    0.071973
   9 H :    0.060170
  10 H :    0.193698
  11 H :    0.127803
  12 H :    0.129282
Sum of atomic charges:    0.0000000

--------------------------------
MULLIKEN REDUCED ORBITAL CHARGES
--------------------------------
  0 C s       :     3.061085  s :     3.061085
      pz      :     1.046056  p :     2.960250
      px      :     0.921476
      py      :     0.992718
      dz2     :     0.005263  d :     0.026096
      dxz     :     0.005060
      dyz     :     0.004496
      dx2y2   :     0.006589
      dxy     :     0.004689
  1 C s       :     3.113178  s :     3.113178
      pz      :     0.974947  p :     2.949634
      px      :     1.016246
      py      :     0.958441
      dz2     :     0.011975  d :     0.058143
      dxz     :     0.008180
      dyz     :     0.014487
      dx2y2   :     0.012267
      dxy     :     0.011235
  2 C s       :     3.069387  s :     3.069387
      pz      :     0.948873  p :     2.586847
      px      :     0.840169
      py      :     0.797805
      dz2     :     0.028317  d :     0.131880
      dxz     :     0.017912
      dyz     :     0.029432
      dx2y2   :     0.031976
      dxy     :     0.024244
  3 O s       :     3.763098  s :     3.763098
      pz      :     1.606462  p :     4.461481
      px      :     1.358499
      py      :     1.496520
      dz2     :     0.002584  d :     0.018056
      dxz     :     0.002951
      dyz     :     0.004127
      dx2y2   :     0.004022
      dxy     :     0.004372
  4 O s       :     3.674574  s :     3.674574
      pz      :     1.640493  p :     4.521694
      px      :     1.624525
      py      :     1.256676
      dz2     :     0.001497  d :     0.012115
      dxz     :     0.002426
      dyz     :     0.004731
      dx2y2   :     0.001503
      dxy     :     0.001958
  5 N s       :     3.451655  s :     3.451655
      pz      :     1.603072  p :     3.789303
      px      :     1.139045
      py      :     1.047186
      dz2     :     0.002468  d :     0.017536
      dxz     :     0.001200
      dyz     :     0.006166
      dx2y2   :     0.006084
      dxy     :     0.001619
  6 H s       :     0.950075  s :     0.950075
      pz      :     0.005818  p :     0.023286
      px      :     0.005605
      py      :     0.011863
  7 H s       :     0.920333  s :     0.920333
      pz      :     0.008379  p :     0.023220
      px      :     0.005255
      py      :     0.009587
  8 H s       :     0.904875  s :     0.904875
      pz      :     0.013386  p :     0.023152
      px      :     0.004606
      py      :     0.005160
  9 H s       :     0.919330  s :     0.919330
      pz      :     0.008121  p :     0.020500
      px      :     0.004659
      py      :     0.007720
 10 H s       :     0.736055  s :     0.736055
      pz      :     0.019078  p :     0.070248
      px      :     0.024057
      py      :     0.027113
 11 H s       :     0.828474  s :     0.828474
      pz      :     0.016495  p :     0.043723
      px      :     0.010576
      py      :     0.016652
 12 H s       :     0.826927  s :     0.826927
      pz      :     0.012638  p :     0.043791
      px      :     0.024025
      py      :     0.007129


                     *******************************
                     * LOEWDIN POPULATION ANALYSIS *
                     *******************************

----------------------
LOEWDIN ATOMIC CHARGES
----------------------
   0 C :   -0.064992
   1 C :   -0.045543
   2 C :    0.080636
   3 O :   -0.185157
   4 O :   -0.045845
   5 N :   -0.120353
   6 H :    0.022581
   7 H :    0.036856
   8 H :    0.042891
   9 H :    0.039308
  10 H :    0.097593
  11 H :    0.070257
  12 H :    0.071767

-------------------------------
LOEWDIN REDUCED ORBITAL CHARGES
-------------------------------
  0 C s       :     2.857461  s :     2.857461
      pz      :     1.077284  p :     3.139011
      px      :     1.002228
      py      :     1.059499
      dz2     :     0.014267  d :     0.068520
      dxz     :     0.011984
      dyz     :     0.011662
      dx2y2   :     0.018953
      dxy     :     0.011653
  1 C s       :     2.855610  s :     2.855610
      pz      :     1.033845  p :     3.056395
      px      :     1.039544
      py      :     0.983006
      dz2     :     0.030241  d :     0.133538
      dxz     :     0.017782
      dyz     :     0.034653
      dx2y2   :     0.028893
      dxy     :     0.021970
  2 C s       :     2.872725  s :     2.872725
      pz      :     1.002319  p :     2.758860
      px      :     0.867336
      py      :     0.889206
      dz2     :     0.062253  d :     0.287779
      dxz     :     0.039785
      dyz     :     0.066293
      dx2y2   :     0.065310
      dxy     :     0.054138
  3 O s       :     3.560946  s :     3.560946
      pz      :     1.638006  p :     4.593910
      px      :     1.400471
      py      :     1.555432
      dz2     :     0.003566  d :     0.030301
      dxz     :     0.005643
      dyz     :     0.007421
      dx2y2   :     0.005130
      dxy     :     0.008541
  4 O s       :     3.408923  s :     3.408923
      pz      :     1.661801  p :     4.611845
      px      :     1.624814
      py      :     1.325230
      dz2     :     0.001955  d :     0.025077
      dxz     :     0.003670
      dyz     :     0.010309
      dx2y2   :     0.003812
      dxy     :     0.005330
  5 N s       :     3.150162  s :     3.150162
      pz      :     1.600776  p :     3.930456
      px      :     1.204036
      py      :     1.125643
      dz2     :     0.003968  d :     0.039736
      dxz     :     0.001706
      dyz     :     0.012873
      dx2y2   :     0.015591
      dxy     :     0.005598
  6 H s       :     0.912673  s :     0.912673
      pz      :     0.014867  p :     0.064746
      px      :     0.016500
      py      :     0.033378
  7 H s       :     0.898206  s :     0.898206
      pz      :     0.022603  p :     0.064938
      px      :     0.016081
      py      :     0.026254
  8 H s       :     0.891812  s :     0.891812
      pz      :     0.037829  p :     0.065297
      px      :     0.014770
      py      :     0.012698
  9 H s       :     0.895147  s :     0.895147
      pz      :     0.024819  p :     0.065545
      px      :     0.016057
      py      :     0.024668
 10 H s       :     0.721921  s :     0.721921
      pz      :     0.054098  p :     0.180486
      px      :     0.062310
      py      :     0.064079
 11 H s       :     0.814891  s :     0.814891
      pz      :     0.048958  p :     0.114853
      px      :     0.022573
      py      :     0.043322
 12 H s       :     0.813491  s :     0.813491
      pz      :     0.033812  p :     0.114742
      px      :     0.064343
      py      :     0.016588


                      *****************************
                      * MAYER POPULATION ANALYSIS *
                      *****************************

  NA   - Mulliken gross atomic population
  ZA   - Total nuclear charge
  QA   - Mulliken gross atomic charge
  VA   - Mayer's total valence
  BVA  - Mayer's bonded valence
  FA   - Mayer's free valence

  ATOM       NA         ZA         QA         VA         BVA        FA
  0 C      6.0474     6.0000    -0.0474     3.9359     3.9359     0.0000
  1 C      6.1210     6.0000    -0.1210     3.9638     3.9638     0.0000
  2 C      5.7881     6.0000     0.2119     4.2472     4.2472     0.0000
  3 O      8.2426     8.0000    -0.2426     2.2425     2.2425     0.0000
  4 O      8.2084     8.0000    -0.2084     2.2009     2.2009    -0.0000
  5 N      7.2585     7.0000    -0.2585     3.0606     3.0606    -0.0000
  6 H      0.9734     1.0000     0.0266     0.9940     0.9940     0.0000
  7 H      0.9436     1.0000     0.0564     0.9893     0.9893    -0.0000
  8 H      0.9280     1.0000     0.0720     0.9915     0.9915     0.0000
  9 H      0.9398     1.0000     0.0602     0.9714     0.9714     0.0000
 10 H      0.8063     1.0000     0.1937     1.0064     1.0064    -0.0000
 11 H      0.8722     1.0000     0.1278     1.0011     1.0011    -0.0000
 12 H      0.8707     1.0000     0.1293     0.9962     0.9962     0.0000

  Mayer bond orders larger than 0.1
B(  0-C ,  1-C ) :   1.0483 B(  0-C ,  6-H ) :   0.9638 B(  0-C ,  7-H ) :   0.9635 
B(  0-C ,  8-H ) :   0.9659 B(  1-C ,  2-C ) :   0.8958 B(  1-C ,  5-N ) :   1.1009 
B(  1-C ,  9-H ) :   0.9144 B(  2-C ,  3-O ) :   2.1163 B(  2-C ,  4-O ) :   1.1747 
B(  4-O , 10-H ) :   0.9425 B(  5-N , 11-H ) :   0.9579 B(  5-N , 12-H ) :   0.9600 


-------
TIMINGS
-------

Total SCF time: 0 days 0 hours 0 min 17 sec 

Total time                  ....      17.290 sec
Sum of individual times     ....      17.237 sec  ( 99.7%)

Fock matrix formation       ....      16.410 sec  ( 94.9%)
  XC integration            ....       2.407 sec  ( 14.7% of F)
    Basis function eval.    ....       0.748 sec  ( 31.1% of XC)
    Density eval.           ....       0.677 sec  ( 28.1% of XC)
    XC-Functional eval.     ....       0.110 sec  (  4.6% of XC)
    XC-Potential eval.      ....       0.582 sec  ( 24.2% of XC)
Diagonalization             ....       0.007 sec  (  0.0%)
Density matrix formation    ....       0.001 sec  (  0.0%)
Population analysis         ....       0.012 sec  (  0.1%)
Initial guess               ....       0.174 sec  (  1.0%)
Orbital Transformation      ....       0.000 sec  (  0.0%)
Orbital Orthonormalization  ....       0.000 sec  (  0.0%)
DIIS solution               ....       0.002 sec  (  0.0%)
SOSCF solution              ....       0.005 sec  (  0.0%)
Grid generation             ....       0.626 sec  (  3.6%)

-------------------------   --------------------
FINAL SINGLE POINT ENERGY      -323.134896457964
-------------------------   --------------------

------------------------------------------------------------------------------
                         ORCA SCF GRADIENT CALCULATION
------------------------------------------------------------------------------

Gradient of the Kohn-Sham DFT energy:
Kohn-Sham wavefunction type      ... RKS
Hartree-Fock exchange scaling    ...    0.250
Number of operators              ...    1
Number of atoms                  ...   13
Basis set dimensions             ...  119
Integral neglect threshold       ... 2.5e-011
Integral primitive cutoff        ... 2.5e-012

Nuclear repulsion gradient       ... done
One Electron Gradient            
  ECP gradient                   ... done
Pre-screening matrix             ... done
Starting the two electron gradient:
Two electron gradient done
Exchange-correlation gradient    ... done

------------------
CARTESIAN GRADIENT
------------------

   1   C   :    0.002639362    0.004428084   -0.002717141
   2   C   :    0.002760315   -0.016080630   -0.008678476
   3   C   :   -0.023959735   -0.016307454    0.021218299
   4   O   :    0.022080592    0.027689600   -0.013057821
   5   O   :   -0.004489589   -0.002871552    0.008024615
   6   N   :   -0.006947846    0.003445863    0.004064131
   7   H   :    0.000393583   -0.006406460   -0.000717762
   8   H   :   -0.001715716    0.005328197   -0.003906221
   9   H   :   -0.002763502    0.000426018    0.007754471
  10   H   :    0.000754026   -0.002564444    0.003028648
  11   H   :   -0.000864695   -0.012288616   -0.010728183
  12   H   :   -0.011968527    0.019040362   -0.010368518
  13   H   :    0.024081733   -0.003838969    0.006083957

Difference to translation invariance:
           :    0.0000000000    0.0000000000    0.0000000000

Norm of the cartesian gradient     ...    0.0703158884
RMS gradient                       ...    0.0112595534
MAX gradient                       ...    0.0276895997

-------
TIMINGS
-------

Total SCF gradient time            ...        5.740 sec

One electron gradient       ....       0.051 sec  (  0.9%)
Prescreening matrices       ....       0.050 sec  (  0.9%)
Two electron gradient       ....       3.564 sec  ( 62.1%)
XC gradient                 ....       1.969 sec  ( 34.3%)
------------------------------------------------------------------------------
                         ORCA GEOMETRY RELAXATION STEP
------------------------------------------------------------------------------

Reading the OPT-File                    .... done
Getting information on internals        .... done
Copying old internal coords+grads       .... done
Making the new internal coordinates     .... (new redundants).... done
Validating the new internal coordinates .... (new redundants).... done
Calculating the B-matrix                .... done
Calculating the G,G- and P matrices     .... done
Transforming gradient to internals      .... done
Projecting the internal gradient        .... done
Number of atoms                         ....  13
Number of internal coordinates          ....  54
Current Energy                          ....  -323.134896458 Eh
Current gradient norm                   ....     0.070315888 Eh/bohr
Maximum allowed component of the step   ....  0.300
Current trust radius                    ....  0.300
Evaluating the initial hessian          ....  (Almloef) done
Projecting the Hessian                  .... done
Forming the augmented Hessian           .... done
Diagonalizing the augmented Hessian     .... done
Last element of RFO vector              ....  0.982297271
Lowest eigenvalues of augmented Hessian:
 -0.010563923  0.011069455  0.011311234  0.015289809  0.016147302
Length of the computed step             ....  0.190704772
The final length of the internal step   ....  0.190704772
Converting the step to cartesian space:
 Initial RMS(Int)=    0.0259516324
Transforming coordinates:
 Iter   0:  RMS(Cart)=    0.0526227594 RMS(Int)=    0.0260261384
 Iter   1:  RMS(Cart)=    0.0017496097 RMS(Int)=    0.0015407002
 Iter   2:  RMS(Cart)=    0.0001825334 RMS(Int)=    0.0000920926
 Iter   3:  RMS(Cart)=    0.0000173599 RMS(Int)=    0.0000158917
 Iter   4:  RMS(Cart)=    0.0000019553 RMS(Int)=    0.0000011282
 Iter   5:  RMS(Cart)=    0.0000001963 RMS(Int)=    0.0000001741
 Iter   6:  RMS(Cart)=    0.0000000220 RMS(Int)=    0.0000000138
done
Storing new coordinates                 .... done

                                .--------------------.
          ----------------------|Geometry convergence|-------------------------
          Item                value                   Tolerance       Converged
          ---------------------------------------------------------------------
          RMS gradient        0.0094008282            0.0001000000      NO
          MAX gradient        0.0372689629            0.0003000000      NO
          RMS step            0.0259516324            0.0020000000      NO
          MAX step            0.0754686835            0.0040000000      NO
          ........................................................
          Max(Bonds)      0.0330      Max(Angles)    4.32
          Max(Dihed)        2.44      Max(Improp)    0.00
          ---------------------------------------------------------------------

The optimization has not yet converged - more geometry cycles are needed


    ---------------------------------------------------------------------------
                         Redundant Internal Coordinates
                            (Angstroem and degrees)

        Definition                    Value    dE/dq     Step     New-Value
    ----------------------------------------------------------------------------
     1. B(C   1,C   0)                1.5310  0.001440 -0.0020    1.5290   
     2. B(C   2,C   1)                1.5184 -0.006702  0.0089    1.5273   
     3. B(O   3,C   2)                1.2215  0.037269 -0.0188    1.2027   
     4. B(O   4,C   2)                1.3507  0.015534 -0.0125    1.3382   
     5. B(N   5,C   1)                1.4659  0.018090 -0.0221    1.4438   
     6. B(H   6,C   0)                1.1100  0.005769 -0.0088    1.1012   
     7. B(H   7,C   0)                1.1112  0.006753 -0.0104    1.1008   
     8. B(H   8,C   0)                1.1107  0.008167 -0.0126    1.0982   
     9. B(H   9,C   1)                1.1122  0.003947 -0.0061    1.1061   
    10. B(H  10,O   4)                0.9670  0.004272 -0.0044    0.9626   
    11. B(H  11,N   5)                1.0467  0.023930 -0.0326    1.0141   
    12. B(H  12,N   5)                1.0462  0.024288 -0.0330    1.0132   
    13. A(H   6,C   0,H   8)          108.00  0.000601    0.12    108.12   
    14. A(H   6,C   0,H   7)          108.81  0.002372   -0.49    108.32   
    15. A(C   1,C   0,H   6)          110.91 -0.003931    0.78    111.68   
    16. A(H   7,C   0,H   8)          108.76  0.000405   -0.25    108.51   
    17. A(C   1,C   0,H   8)          109.79  0.000890   -0.12    109.67   
    18. A(C   1,C   0,H   7)          110.51 -0.000234   -0.05    110.46   
    19. A(C   2,C   1,H   9)          108.26  0.001134   -0.71    107.55   
    20. A(C   0,C   1,H   9)          108.40 -0.000257   -0.37    108.04   
    21. A(C   2,C   1,N   5)          111.76 -0.003126    1.07    112.83   
    22. A(C   0,C   1,N   5)          109.30 -0.000827    0.55    109.85   
    23. A(C   0,C   1,C   2)          110.77  0.001610   -0.04    110.73   
    24. A(N   5,C   1,H   9)          108.26  0.001566   -0.57    107.68   
    25. A(C   1,C   2,O   4)          120.56  0.015427   -2.08    118.48   
    26. A(C   1,C   2,O   3)          120.62 -0.014477    1.93    122.55   
    27. A(O   3,C   2,O   4)          118.82 -0.000961    0.18    119.00   
    28. A(C   2,O   4,H  10)          122.03  0.028808   -4.32    117.71   
    29. A(H  11,N   5,H  12)          109.00  0.003520   -2.15    106.86   
    30. A(C   1,N   5,H  12)          109.82 -0.001415   -0.44    109.38   
    31. A(C   1,N   5,H  11)          110.49  0.003791   -1.31    109.18   
    32. D(H   9,C   1,C   0,H   6)    -58.95  0.000082    0.14    -58.81   
    33. D(N   5,C   1,C   0,H   7)     62.50 -0.001410    0.87     63.37   
    34. D(H   9,C   1,C   0,H   8)     60.32 -0.001067    0.70     61.02   
    35. D(H   9,C   1,C   0,H   7)   -179.71 -0.000143    0.28   -179.43   
    36. D(C   2,C   1,C   0,H   8)    178.96  0.001102   -0.41    178.55   
    37. D(N   5,C   1,C   0,H   8)    -57.47 -0.002333    1.29    -56.18   
    38. D(N   5,C   1,C   0,H   6)   -176.75 -0.001184    0.73   -176.02   
    39. D(C   2,C   1,C   0,H   7)    -61.07  0.002026   -0.83    -61.90   
    40. D(C   2,C   1,C   0,H   6)     59.69  0.002251   -0.97     58.72   
    41. D(O   4,C   2,C   1,N   5)    177.25  0.000620    0.04    177.29   
    42. D(O   4,C   2,C   1,C   0)    -60.61 -0.001483    1.46    -59.15   
    43. D(O   3,C   2,C   1,H   9)   -121.08  0.000818   -1.59   -122.68   
    44. D(O   3,C   2,C   1,N   5)     -1.95  0.001598   -2.11     -4.06   
    45. D(O   4,C   2,C   1,H   9)     58.12 -0.000160    0.56     58.68   
    46. D(O   3,C   2,C   1,C   0)    120.19 -0.000505   -0.69    119.50   
    47. D(H  10,O   4,C   2,O   3)    178.57 -0.000697    1.29    179.86   
    48. D(H  10,O   4,C   2,C   1)     -0.65  0.000374   -0.84     -1.49   
    49. D(H  12,N   5,C   1,C   2)    -60.38 -0.003307    2.40    -57.98   
    50. D(H  12,N   5,C   1,C   0)    176.65 -0.002658    1.34    177.99   
    51. D(H  11,N   5,C   1,H   9)    179.03  0.003089   -1.98    177.06   
    52. D(H  11,N   5,C   1,C   2)     59.90  0.002564   -1.38     58.52   
    53. D(H  12,N   5,C   1,H   9)     58.76 -0.002782    1.80     60.56   
    54. D(H  11,N   5,C   1,C   0)    -63.08  0.003213   -2.44    -65.52   
    ----------------------------------------------------------------------------

         *************************************************************
         *                GEOMETRY OPTIMIZATION CYCLE   2            *
         *************************************************************
---------------------------------
CARTESIAN COORDINATES (ANGSTROEM)
---------------------------------
  C      1.083561    0.028389    0.025747
  C      2.612047    0.057000   -0.001837
  C      3.132787   -0.243404   -1.405819
  O      3.802924    0.537781   -2.028030
  O      2.805574   -1.411337   -1.971133
  N      3.087946    1.318779    0.513960
  H      0.689074   -0.948170   -0.295727
  H      0.672183    0.803469   -0.638940
  H      0.728662    0.220703    1.047054
  H      2.981652   -0.741114    0.668878
  H      2.270678   -2.023726   -1.455902
  H      2.802029    2.063382   -0.112324
  H      4.101132    1.316899    0.523705

----------------------------
CARTESIAN COORDINATES (A.U.)
----------------------------
  NO LB      ZA    FRAG     MASS         X           Y           Z
   0 C     6.0000    0    12.011    2.047634    0.053647    0.048655
   1 C     6.0000    0    12.011    4.936054    0.107714   -0.003472
   2 C     6.0000    0    12.011    5.920110   -0.459968   -2.656614
   3 O     8.0000    0    15.999    7.186486    1.016258   -3.832422
   4 O     8.0000    0    15.999    5.301766   -2.667040   -3.724902
   5 N     7.0000    0    14.007    5.835373    2.492131    0.971244
   6 H     1.0000    0     1.008    1.302161   -1.791781   -0.558843
   7 H     1.0000    0     1.008    1.270242    1.518337   -1.207422
   8 H     1.0000    0     1.008    1.376972    0.417068    1.978644
   9 H     1.0000    0     1.008    5.634506   -1.400503    1.263996
  10 H     1.0000    0     1.008    4.290959   -3.824288   -2.751256
  11 H     1.0000    0     1.008    5.295067    3.899227   -0.212262
  12 H     1.0000    0     1.008    7.750016    2.488578    0.989659

--------------------------------
INTERNAL COORDINATES (ANGSTROEM)
--------------------------------
 C      0   0   0     0.000000000000     0.00000000     0.00000000
 C      1   0   0     1.529002197777     0.00000000     0.00000000
 C      2   1   0     1.527278229067   110.71674556     0.00000000
 O      3   2   1     1.202697113416   122.53434676   119.49525353
 O      3   2   1     1.338175765133   118.46646280   300.85942230
 N      2   1   3     1.443819190114   109.84081731   125.26565157
 H      1   2   3     1.101196102305   111.68123170    58.71615901
 H      1   2   3     1.100814265964   110.45727881   298.10196464
 H      1   2   3     1.098182423872   109.66752015   178.55322450
 H      2   1   3     1.106098196096   108.03498993   242.46976275
 H      5   3   2     0.962599826994   117.71060069   358.52727452
 H      6   2   1     1.014107756941   109.15434880   294.48914247
 H      6   2   1     1.013234315445   109.35434465   177.96809305

---------------------------
INTERNAL COORDINATES (A.U.)
---------------------------
 C      0   0   0     0.000000000000     0.00000000     0.00000000
 C      1   0   0     2.889395411962     0.00000000     0.00000000
 C      2   1   0     2.886137583237   110.71674556     0.00000000
 O      3   2   1     2.272768166415   122.53434676   119.49525353
 O      3   2   1     2.528785715152   118.46646280   300.85942230
 N      2   1   3     2.728422856215   109.84081731   125.26565157
 H      1   2   3     2.080959053099   111.68123170    58.71615901
 H      1   2   3     2.080237486986   110.45727881   298.10196464
 H      1   2   3     2.075264026203   109.66752015   178.55322450
 H      2   1   3     2.090222667846   108.03498993   242.46976275
 H      5   3   2     1.819050049578   117.71060069   358.52727452
 H      6   2   1     1.916385930904   109.15434880   294.48914247
 H      6   2   1     1.914735365683   109.35434465   177.96809305


Diagonalization of the overlap matrix:
Smallest eigenvalue                        ... 1.661e-003
Time for diagonalization                   ...    0.000 sec
Threshold for overlap eigenvalues          ... 1.000e-008
Number of eigenvalues below threshold      ... 0
Time for construction of square roots      ...    0.005 sec
Total time needed                          ...    0.005 sec

-------------------
DFT GRID GENERATION
-------------------

General Integration Accuracy     IntAcc      ...  4.340
Radial Grid Type                 RadialGrid  ... Gauss-Chebyshev
Angular Grid (max. acc.)         AngularGrid ... Lebedev-110
Angular grid pruning method      GridPruning ... 3 (G Style)
Weight generation scheme         WeightScheme... Becke
Basis function cutoff            BFCut       ...   1.0000e-011
Integration weight cutoff        WCut        ...   1.0000e-014
Grids for H and He will be reduced by one unit

# of grid points (after initial pruning)     ...  15660 (   0.0 sec)
# of grid points (after weights+screening)   ...  14644 (   0.0 sec)
nearest neighbour list constructed           ...    0.0 sec
Grid point re-assignment to atoms done       ...    0.0 sec
Grid point division into batches done        ...    0.0 sec
Reduced shell lists constructed in    0.1 sec

Total number of grid points                  ...    14644
Total number of batches                      ...      236
Average number of points per batch           ...       62
Average number of grid points per atom       ...     1126
Average number of shells per batch           ...    45.02 (78.98%)
Average number of basis functions per batch  ...    93.32 (78.42%)
Average number of large shells per batch     ...    36.54 (81.17%)
Average number of large basis fcns per batch ...    73.47 (78.73%)
Maximum spatial batch extension              ...  20.13, 25.66, 20.00 au
Average spatial batch extension              ...   3.85,  3.93,  3.97 au

Time for grid setup =    0.094 sec

--------------
SCF ITERATIONS
--------------
ITER       Energy         Delta-E        Max-DP      RMS-DP      [F,P]     Damp
               ***  Starting incremental Fock matrix formation  ***
  0   -323.1369322515   0.000000000000 0.01000487  0.00028595  0.0219652 0.7000
                      *** Initiating the SOSCF procedure ***
                      *** Re-Reading the Fockian *** 
                      *** Removing any level shift *** 
ITER      Energy       Delta-E        Grad      Rot      Max-DP    RMS-DP
  1   -323.13799066  -0.0010584040  0.000900  0.000900  0.028706  0.000816
               *** Restarting incremental Fock matrix formation ***
  2   -323.14062021  -0.0026295543  0.001173  0.001381  0.006255  0.000230
  3   -323.14064001  -0.0000197992  0.001665  0.002367  0.002876  0.000115
  4   -323.14069373  -0.0000537172  0.000770  0.001496  0.001793  0.000063
  5   -323.14069170   0.0000020245  0.000724  0.000716  0.001039  0.000034
  6   -323.14069862  -0.0000069159  0.000064  0.000075  0.000388  0.000010
  7   -323.14069865  -0.0000000327  0.000048  0.000051  0.000204  0.000005
  8   -323.14069876  -0.0000001123  0.000007  0.000012  0.000037  0.000001
  9   -323.14069876  -0.0000000002  0.000010  0.000006  0.000024  0.000001
                  ***Gradient check signals convergence***
              ***Rediagonalizing the Fockian in SOSCF/NRSCF***

               *****************************************************
               *                     SUCCESS                       *
               *           SCF CONVERGED AFTER  10 CYCLES          *
               *****************************************************

Setting up the final grid:

General Integration Accuracy     IntAcc      ...  4.670
Radial Grid Type                 RadialGrid  ... Gauss-Chebyshev
Angular Grid (max. acc.)         AngularGrid ... Lebedev-302
Angular grid pruning method      GridPruning ... 3 (G Style)
Weight generation scheme         WeightScheme... Becke
Basis function cutoff            BFCut       ...   1.0000e-011
Integration weight cutoff        WCut        ...   1.0000e-014
Grids for H and He will be reduced by one unit

# of grid points (after initial pruning)     ...  61030 (   0.0 sec)
# of grid points (after weights+screening)   ...  56432 (   0.1 sec)
nearest neighbour list constructed           ...    0.0 sec
Grid point re-assignment to atoms done       ...    0.0 sec
Grid point division into batches done        ...    0.2 sec
Reduced shell lists constructed in    0.5 sec

Total number of grid points                  ...    56432
Total number of batches                      ...      889
Average number of points per batch           ...       63
Average number of grid points per atom       ...     4341
Average number of shells per batch           ...    41.38 (72.60%)
Average number of basis functions per batch  ...    85.06 (71.48%)
Average number of large shells per batch     ...    32.82 (79.31%)
Average number of large basis fcns per batch ...    65.22 (76.68%)
Maximum spatial batch extension              ...  19.00, 16.21, 17.42 au
Average spatial batch extension              ...   2.51,  2.51,  2.58 au

Final grid set up in    0.6 sec
Final integration                            ... done (   0.4 sec)
Change in XC energy                          ...    -0.000584079
Integrated number of electrons               ...    47.999922634
Previous integrated no of electrons          ...    47.994846551
Total Energy       :         -323.14128284 Eh           -8793.12134 eV
  Last Energy change         ...  -1.9731e-009  Tolerance :  1.0000e-008
  Last MAX-Density change    ...   5.9087e-006  Tolerance :  1.0000e-007
             **** THE GBW FILE WAS UPDATED (alanine.gbw) ****
             **** DENSITY FILE WAS UPDATED (alanine.scfp.tmp) ****
             **** ENERGY FILE WAS UPDATED (alanine.en.tmp) ****
Total SCF time: 0 days 0 hours 0 min 13 sec 

-------------------------   --------------------
FINAL SINGLE POINT ENERGY      -323.141282843798
-------------------------   --------------------

------------------------------------------------------------------------------
                         ORCA SCF GRADIENT CALCULATION
------------------------------------------------------------------------------

Gradient of the Kohn-Sham DFT energy:
Kohn-Sham wavefunction type      ... RKS
Hartree-Fock exchange scaling    ...    0.250
Number of operators              ...    1
Number of atoms                  ...   13
Basis set dimensions             ...  119
Integral neglect threshold       ... 2.5e-011
Integral primitive cutoff        ... 2.5e-012

Nuclear repulsion gradient       ... done
One Electron Gradient            
  ECP gradient                   ... done
Pre-screening matrix             ... done
Starting the two electron gradient:
Two electron gradient done
Exchange-correlation gradient    ... done

------------------
CARTESIAN GRADIENT
------------------

   1   C   :   -0.001881405    0.003603926    0.000154728
   2   C   :    0.003127445   -0.003410783   -0.004352160
   3   C   :   -0.003627491   -0.006888696    0.005219693
   4   O   :    0.002729641    0.003658615   -0.004271357
   5   O   :   -0.002038052    0.006377691    0.009373404
   6   N   :    0.004440736    0.008242796   -0.004735500
   7   H   :    0.001625694   -0.001008540    0.000403168
   8   H   :    0.000607119    0.000330731    0.000253858
   9   H   :   -0.000290542   -0.000662544    0.000068163
  10   H   :   -0.000141824    0.001490339    0.000858737
  11   H   :    0.000514904   -0.006115891   -0.008262251
  12   H   :   -0.001396474   -0.003119507    0.003573426
  13   H   :   -0.003669752   -0.002498137    0.001716090

Difference to translation invariance:
           :    0.0000000000    0.0000000000   -0.0000000000

Norm of the cartesian gradient     ...    0.0242390974
RMS gradient                       ...    0.0038813619
MAX gradient                       ...    0.0093734040

-------
TIMINGS
-------

Total SCF gradient time            ...        5.674 sec

One electron gradient       ....       0.048 sec  (  0.8%)
Prescreening matrices       ....       0.032 sec  (  0.6%)
Two electron gradient       ....       3.530 sec  ( 62.2%)
XC gradient                 ....       1.982 sec  ( 34.9%)
------------------------------------------------------------------------------
                         ORCA GEOMETRY RELAXATION STEP
------------------------------------------------------------------------------

Reading the OPT-File                    .... done
Getting information on internals        .... done
Copying old internal coords+grads       .... done
Making the new internal coordinates     .... (new redundants).... done
Validating the new internal coordinates .... (new redundants).... done
Calculating the B-matrix                .... done
Calculating the G,G- and P matrices     .... done
Transforming gradient to internals      .... done
Projecting the internal gradient        .... done
Number of atoms                         ....  13
Number of internal coordinates          ....  54
Current Energy                          ....  -323.141282844 Eh
Current gradient norm                   ....     0.024239097 Eh/bohr
Maximum allowed component of the step   ....  0.300
Current trust radius                    ....  0.300
Updating the Hessian (BFGS)             .... done
Forming the augmented Hessian           .... done
Diagonalizing the augmented Hessian     .... done
Last element of RFO vector              ....  0.989029849
Lowest eigenvalues of augmented Hessian:
 -0.002450884  0.011069486  0.011312220  0.015289948  0.016610024
Length of the computed step             ....  0.149354241
The final length of the internal step   ....  0.149354241
Converting the step to cartesian space:
 Initial RMS(Int)=    0.0203245379
Transforming coordinates:
 Iter   0:  RMS(Cart)=    0.0410060721 RMS(Int)=    0.0202337307
 Iter   1:  RMS(Cart)=    0.0015948779 RMS(Int)=    0.0014091144
 Iter   2:  RMS(Cart)=    0.0001650515 RMS(Int)=    0.0000978201
 Iter   3:  RMS(Cart)=    0.0000153651 RMS(Int)=    0.0000134954
 Iter   4:  RMS(Cart)=    0.0000015784 RMS(Int)=    0.0000010453
 Iter   5:  RMS(Cart)=    0.0000001571 RMS(Int)=    0.0000001273
 Iter   6:  RMS(Cart)=    0.0000000160 RMS(Int)=    0.0000000120
done
Storing new coordinates                 .... done

                                .--------------------.
          ----------------------|Geometry convergence|-------------------------
          Item                value                   Tolerance       Converged
          ---------------------------------------------------------------------
          Energy change      -0.0063863858            0.0000050000      NO
          RMS gradient        0.0032902389            0.0001000000      NO
          MAX gradient        0.0186672957            0.0003000000      NO
          RMS step            0.0203245379            0.0020000000      NO
          MAX step            0.0754652220            0.0040000000      NO
          ........................................................
          Max(Bonds)      0.0076      Max(Angles)    4.32
          Max(Dihed)        3.02      Max(Improp)    0.00
          ---------------------------------------------------------------------

The optimization has not yet converged - more geometry cycles are needed


    ---------------------------------------------------------------------------
                         Redundant Internal Coordinates
                            (Angstroem and degrees)

        Definition                    Value    dE/dq     Step     New-Value
    ----------------------------------------------------------------------------
     1. B(C   1,C   0)                1.5290 -0.000084 -0.0002    1.5288   
     2. B(C   2,C   1)                1.5273 -0.002128  0.0052    1.5324   
     3. B(O   3,C   2)                1.2027  0.006112 -0.0074    1.1953   
     4. B(O   4,C   2)                1.3382 -0.000334 -0.0020    1.3362   
     5. B(N   5,C   1)                1.4438  0.002290 -0.0076    1.4363   
     6. B(H   6,C   0)                1.1012  0.000201 -0.0020    1.0992   
     7. B(H   7,C   0)                1.1008 -0.000150 -0.0016    1.0992   
     8. B(H   8,C   0)                1.0982  0.000038 -0.0024    1.0958   
     9. B(H   9,C   1)                1.1061 -0.000602  0.0001    1.1062   
    10. B(H  10,O   4)                0.9626 -0.000828  0.0003    0.9629   
    11. B(H  11,N   5)                1.0141 -0.004104  0.0011    1.0152   
    12. B(H  12,N   5)                1.0132 -0.003655  0.0002    1.0135   
    13. A(H   6,C   0,H   8)          108.12  0.000378    0.11    108.23   
    14. A(H   6,C   0,H   7)          108.32  0.001611   -0.48    107.83   
    15. A(C   1,C   0,H   6)          111.68 -0.002712    0.82    112.50   
    16. A(H   7,C   0,H   8)          108.51  0.000159   -0.23    108.28   
    17. A(C   1,C   0,H   8)          109.67  0.000932   -0.21    109.45   
    18. A(C   1,C   0,H   7)          110.46 -0.000282   -0.01    110.44   
    19. A(C   2,C   1,H   9)          107.55  0.000488   -0.61    106.94   
    20. A(C   0,C   1,H   9)          108.03  0.000357   -0.23    107.81   
    21. A(C   2,C   1,N   5)          112.82  0.000389    0.19    113.01   
    22. A(C   0,C   1,N   5)          109.84 -0.001238    0.62    110.46   
    23. A(C   0,C   1,C   2)          110.72  0.000255   -0.07    110.65   
    24. A(N   5,C   1,H   9)          107.69 -0.000216    0.06    107.75   
    25. A(C   1,C   2,O   4)          118.47  0.008950   -1.90    116.56   
    26. A(C   1,C   2,O   3)          122.53 -0.003337    0.94    123.47   
    27. A(O   3,C   2,O   4)          118.99 -0.005632    0.91    119.89   
    28. A(C   2,O   4,H  10)          117.71  0.018667   -4.32    113.39   
    29. A(H  11,N   5,H  12)          106.81  0.002454   -1.58    105.23   
    30. A(C   1,N   5,H  12)          109.35 -0.002023    0.08    109.43   
    31. A(C   1,N   5,H  11)          109.15  0.000015   -0.51    108.64   
    32. D(H   9,C   1,C   0,H   6)    -58.81 -0.000407    0.59    -58.22   
    33. D(N   5,C   1,C   0,H   7)     63.37  0.000294    0.37     63.74   
    34. D(H   9,C   1,C   0,H   8)     61.02 -0.001052    1.10     62.12   
    35. D(H   9,C   1,C   0,H   7)   -179.43 -0.000442    0.66   -178.77   
    36. D(C   2,C   1,C   0,H   8)    178.55 -0.000106    0.17    178.73   
    37. D(N   5,C   1,C   0,H   8)    -56.18 -0.000316    0.80    -55.38   
    38. D(N   5,C   1,C   0,H   6)   -176.02  0.000329    0.30   -175.72   
    39. D(C   2,C   1,C   0,H   7)    -61.90  0.000503   -0.26    -62.16   
    40. D(C   2,C   1,C   0,H   6)     58.72  0.000538   -0.33     58.38   
    41. D(O   4,C   2,C   1,N   5)    177.30  0.001130   -3.02    174.28   
    42. D(O   4,C   2,C   1,C   0)    -59.14 -0.000013   -2.12    -61.26   
    43. D(O   3,C   2,C   1,H   9)   -122.68 -0.000146    0.89   -121.79   
    44. D(O   3,C   2,C   1,N   5)     -4.07  0.000135    0.68     -3.39   
    45. D(O   4,C   2,C   1,H   9)     58.69  0.000849   -2.81     55.88   
    46. D(O   3,C   2,C   1,C   0)    119.50 -0.001008    1.57    121.07   
    47. D(H  10,O   4,C   2,O   3)    179.84  0.000561   -2.00    177.85   
    48. D(H  10,O   4,C   2,C   1)     -1.47 -0.000375    1.65      0.18   
    49. D(H  12,N   5,C   1,C   2)    -57.98 -0.001202    1.29    -56.69   
    50. D(H  12,N   5,C   1,C   0)    177.97 -0.000883    0.80    178.76   
    51. D(H  11,N   5,C   1,H   9)    177.07  0.001305   -1.51    175.56   
    52. D(H  11,N   5,C   1,C   2)     58.54  0.000613   -0.90     57.64   
    53. D(H  12,N   5,C   1,H   9)     60.55 -0.000510    0.68     61.23   
    54. D(H  11,N   5,C   1,C   0)    -65.51  0.000932   -1.39    -66.90   
    ----------------------------------------------------------------------------

         *************************************************************
         *                GEOMETRY OPTIMIZATION CYCLE   3            *
         *************************************************************
---------------------------------
CARTESIAN COORDINATES (ANGSTROEM)
---------------------------------
  C      1.078052    0.021365    0.017401
  C      2.606029    0.059386   -0.014598
  C      3.123889   -0.223296   -1.428916
  O      3.806356    0.539710   -2.046077
  O      2.815620   -1.413802   -1.951459
  N      3.088680    1.301042    0.522212
  H      0.674306   -0.944928   -0.316522
  H      0.660840    0.803327   -0.632784
  H      0.729850    0.203164    1.040405
  H      2.978335   -0.755847    0.633771
  H      2.289722   -1.965020   -1.362666
  H      2.816481    2.052542   -0.103702
  H      4.102091    1.301009    0.512564

----------------------------
CARTESIAN COORDINATES (A.U.)
----------------------------
  NO LB      ZA    FRAG     MASS         X           Y           Z
   0 C     6.0000    0    12.011    2.037222    0.040373    0.032883
   1 C     6.0000    0    12.011    4.924680    0.112224   -0.027587
   2 C     6.0000    0    12.011    5.903295   -0.421969   -2.700261
   3 O     8.0000    0    15.999    7.192971    1.019905   -3.866525
   4 O     8.0000    0    15.999    5.320750   -2.671699   -3.687722
   5 N     7.0000    0    14.007    5.836760    2.458612    0.986837
   6 H     1.0000    0     1.008    1.274255   -1.785654   -0.598140
   7 H     1.0000    0     1.008    1.248807    1.518068   -1.195788
   8 H     1.0000    0     1.008    1.379216    0.383924    1.966080
   9 H     1.0000    0     1.008    5.628237   -1.428344    1.197654
  10 H     1.0000    0     1.008    4.326947   -3.713350   -2.575065
  11 H     1.0000    0     1.008    5.322378    3.878741   -0.195968
  12 H     1.0000    0     1.008    7.751828    2.458550    0.968606

--------------------------------
INTERNAL COORDINATES (ANGSTROEM)
--------------------------------
 C      0   0   0     0.000000000000     0.00000000     0.00000000
 C      1   0   0     1.528784858025     0.00000000     0.00000000
 C      2   1   0     1.532443854475   110.63924823     0.00000000
 O      3   2   1     1.195335911236   123.48368866   121.07402868
 O      3   2   1     1.336182917849   116.57161389   298.72320250
 N      2   1   3     1.436254136625   110.45972728   125.89553178
 H      1   2   3     1.099197509813   112.49604264    58.38198173
 H      1   2   3     1.099213843167   110.44329387   297.84189176
 H      1   2   3     1.095824819730   109.45095615   178.72837396
 H      2   1   3     1.106164834130   107.80616015   243.39192933
 H      5   3   2     0.962853710955   113.38676174     0.14175019
 H      6   2   1     1.015190833990   108.62753119   293.09917338
 H      6   2   1     1.013456339392   109.41740376   178.75129191

---------------------------
INTERNAL COORDINATES (A.U.)
---------------------------
 C      0   0   0     0.000000000000     0.00000000     0.00000000
 C      1   0   0     2.888984699352     0.00000000     0.00000000
 C      2   1   0     2.895899200569   110.63924823     0.00000000
 O      3   2   1     2.258857510278   123.48368866   121.07402868
 O      3   2   1     2.525019779558   116.57161389   298.72320250
 N      2   1   3     2.714126976933   110.45972728   125.89553178
 H      1   2   3     2.077182260634   112.49604264    58.38198173
 H      1   2   3     2.077213126200   110.44329387   297.84189176
 H      1   2   3     2.070808800043   109.45095615   178.72837396
 H      2   1   3     2.090348595480   107.80616015   243.39192933
 H      5   3   2     1.819529820735   113.38676174     0.14175019
 H      6   2   1     1.918432649908   108.62753119   293.09917338
 H      6   2   1     1.915154930138   109.41740376   178.75129191


Diagonalization of the overlap matrix:
Smallest eigenvalue                        ... 1.691e-003
Time for diagonalization                   ...    0.004 sec
Threshold for overlap eigenvalues          ... 1.000e-008
Number of eigenvalues below threshold      ... 0
Time for construction of square roots      ...    0.002 sec
Total time needed                          ...    0.006 sec

-------------------
DFT GRID GENERATION
-------------------

General Integration Accuracy     IntAcc      ...  4.340
Radial Grid Type                 RadialGrid  ... Gauss-Chebyshev
Angular Grid (max. acc.)         AngularGrid ... Lebedev-110
[...]
     20       0.035197  -0.128687   0.174597   0.011259  -0.119333   0.005471
     21       0.187767   0.537559  -0.043991  -0.009993   0.351993  -0.131299
     22       0.177369   0.068858   0.142848   0.047397  -0.020673  -0.092523
     23       0.098707  -0.070666   0.201175   0.040916  -0.089554  -0.077027
     24       0.203418  -0.101548   0.574402   0.103009  -0.067597  -0.134396
     25       0.215088   0.173460   0.035276   0.054451   0.078735  -0.147245
     26      -0.002535  -0.053902   0.057483   0.009250  -0.013077   0.018181
     27       0.339562   0.171375  -0.344658   0.152819  -0.585014  -0.052780
     28       0.006839   0.271119   0.090716  -0.063395  -0.417521   0.162359
     29      -0.170052   0.071107   0.450039  -0.193628  -0.231196   0.423344
     30       0.025648  -0.022186   0.019490  -0.099545  -0.027434  -0.031257
     31      -0.059991   0.026485   0.072539  -0.733840  -0.123613  -0.450006
     32      -0.054963   0.005976   0.088105  -0.545758  -0.102212  -0.364283
     33       0.091213   0.191500  -0.036233  -0.040424  -0.088791   0.209072
     34       0.101833   0.266874   0.194204  -0.070298   0.029021   0.343661
     35       0.027206   0.232669   0.214829  -0.043286  -0.006888   0.238974
     36       0.060815  -0.045251   0.013045  -0.010976   0.067011  -0.020189
     37       0.083848  -0.494668  -0.064559  -0.026557   0.339667  -0.259630
     38      -0.047203  -0.233754   0.126534  -0.002969   0.227876  -0.127391
                 24         25         26         27         28         29    
      0      -0.001832  -0.050856  -0.113189  -0.101296  -0.010763  -0.004219
      1      -0.077116   0.013081   0.005120  -0.018980   0.020466  -0.041616
      2       0.046408   0.063938   0.013798  -0.008655  -0.036861  -0.019205
      3       0.105018   0.152262  -0.038549   0.107692   0.002738  -0.000121
      4       0.131702  -0.069986  -0.021775   0.071125   0.000834  -0.040688
      5      -0.058036  -0.094211  -0.038319   0.085350  -0.045944  -0.026933
      6      -0.034981  -0.029483  -0.005915  -0.001780  -0.002938   0.001360
      7      -0.025670   0.194083   0.003330  -0.066908   0.025244   0.017897
      8      -0.049847   0.177292   0.000827  -0.066407   0.026908   0.014869
      9       0.008933  -0.000803   0.003692  -0.004166   0.001224  -0.001617
     10       0.008473  -0.031444   0.002470   0.001799  -0.001839  -0.003717
     11       0.006240  -0.014134  -0.002688   0.014052  -0.003551  -0.000727
     12       0.002753  -0.000728   0.000521   0.004943  -0.001993  -0.000400
     13       0.021316  -0.105893   0.000402   0.031591  -0.012963  -0.006687
     14       0.028838  -0.093254   0.002311   0.021903  -0.009644  -0.005398
     15      -0.004201  -0.047343   0.025510  -0.046527   0.002297  -0.001390
     16      -0.073831   0.031640  -0.018876   0.014915  -0.010876   0.004896
     17       0.020208  -0.011535   0.022514  -0.031640   0.007509   0.003862
     18      -0.234653   0.072412   0.443696   0.271065  -0.000130   0.376081
     19       0.085103   0.054524  -0.148502  -0.192051  -0.212746  -0.188118
     20      -0.144222  -0.236717  -0.204084   0.055503   0.635640  -0.006333
     21       0.136850   0.052565   0.372619   0.339910   0.392095  -0.133334
     22       0.000417  -0.163892   0.069289   0.214847   0.301329   0.360144
     23       0.033765  -0.208126  -0.204091   0.000870   0.066253   0.526748
     24      -0.155779  -0.005711   0.485035   0.217611  -0.266749  -0.230033
     25       0.200320  -0.004183   0.056390   0.049005  -0.434187   0.534202
     26      -0.057631   0.075476   0.193908   0.089023  -0.028934  -0.198524
     27      -0.596380  -0.462868   0.186471  -0.294464  -0.059263   0.035161
     28       0.207307  -0.112676   0.304236  -0.478399   0.096499   0.043866
     29       0.430253   0.202079   0.244739  -0.370143   0.102808   0.063308
     30      -0.017752   0.015324  -0.022017   0.004387   0.012364  -0.007679
     31      -0.177278   0.357917   0.015875  -0.046397   0.013165   0.043671
     32      -0.155074   0.316543  -0.005426  -0.048200   0.024744   0.028435
     33      -0.071464   0.191533  -0.037362   0.089502   0.027293   0.045401
     34      -0.265497   0.244098  -0.128767   0.187961  -0.026470   0.038422
     35      -0.192837   0.141698  -0.092550   0.127521  -0.028253   0.021063
     36      -0.000631  -0.038101   0.028751  -0.048809   0.005312   0.001217
     37       0.158202  -0.270197   0.206966  -0.296282   0.093882   0.032341
     38      -0.019281  -0.178019   0.042947  -0.108176  -0.001133  -0.018558
                 30         31         32         33         34         35    
      0       0.006511  -0.006022  -0.000687   0.051160  -0.000340  -0.003374
      1      -0.001280  -0.001932   0.005963   0.001840  -0.091709   0.015330
      2      -0.001247   0.003331  -0.003234   0.009789   0.015503   0.091989
      3      -0.011656  -0.021672   0.027903  -0.001796   0.002422   0.000630
      4       0.006476  -0.011902  -0.061627  -0.000625  -0.005012  -0.001282
      5       0.030987   0.042259   0.048762   0.000176   0.003079   0.002232
      6      -0.001066   0.415872  -0.000239   0.000053  -0.000479   0.000619
      7      -0.005775   0.493893  -0.002154   0.000585  -0.000804   0.000428
      8      -0.000558  -0.416511   0.000216   0.001143  -0.000054  -0.000269
      9       0.002367  -0.262826   0.000576   0.000111   0.000222  -0.000101
     10       0.002834  -0.311310   0.000577   0.000037   0.000298  -0.000121
     11      -0.003273   0.261957  -0.000241  -0.000306  -0.000154  -0.000036
     12      -0.000025  -0.026784  -0.000161  -0.000294   0.000278  -0.000168
     13       0.000380  -0.024554   0.000539  -0.000202   0.000092  -0.000075
     14       0.000075   0.035199   0.000219  -0.000191   0.000102  -0.000009
     15      -0.039673  -0.001636  -0.000742  -0.000085  -0.000058   0.000022
     16      -0.064924  -0.010280   0.000877  -0.000199   0.000446  -0.000174
     17      -0.003232  -0.005221  -0.001166   0.000000  -0.000056  -0.000202
     18      -0.040155  -0.010972  -0.010801  -0.224441   0.264062  -0.113234
     19       0.026351   0.006318  -0.031670  -0.553122   0.622468  -0.272793
     20      -0.025652   0.011428  -0.013648  -0.183440   0.217843  -0.080940
     21      -0.025983   0.033633   0.019685  -0.225580  -0.260743  -0.127155
     22      -0.034692   0.001412  -0.040849   0.447251   0.484596   0.246769
     23      -0.014113  -0.025205   0.035851  -0.373800  -0.422612  -0.193254
     24       0.024559   0.014350  -0.005234  -0.136902  -0.007177   0.276790
     25      -0.002528  -0.019084   0.006082   0.084801  -0.013157  -0.157846
     26       0.004736   0.023560   0.017403   0.436670   0.023354  -0.825162
     27      -0.003987  -0.060797  -0.329979  -0.001033  -0.024759  -0.009605
     28      -0.048069   0.043861   0.734597   0.003819   0.048637   0.017303
     29      -0.042965   0.094155  -0.582339  -0.004163  -0.038023  -0.016172
     30       0.001421  -0.028981   0.004519   0.001219  -0.000421   0.001313
     31       0.001059  -0.291517   0.002585  -0.002455   0.004948  -0.001693
     32       0.002018  -0.244562   0.002996   0.000942  -0.000346  -0.000001
     33       0.650240   0.045753   0.003323   0.001259   0.003629   0.000439
     34       0.269739  -0.013582  -0.008115   0.001818   0.001595   0.001376
     35       0.076473  -0.033580   0.014255  -0.000505   0.000545   0.000943
     36      -0.017989   0.001031   0.000750   0.000732  -0.000809   0.000753
     37       0.646194   0.026063  -0.003570   0.001834   0.000599  -0.000083
     38      -0.252574  -0.049944  -0.003046  -0.000164   0.000074  -0.001410
                  36         37         38    
      0      -0.000068  -0.000315  -0.000203
      1       0.000046   0.000284  -0.000374
      2       0.000184  -0.000087  -0.000146
      3      -0.000078   0.001036  -0.000121
      4      -0.000145  -0.001487  -0.000480
      5      -0.002796   0.000284   0.000177
      6       0.000024  -0.000141   0.001442
      7      -0.000096   0.000109   0.001022
      8      -0.000215  -0.000002  -0.002332
      9      -0.000125   0.000045  -0.000660
     10      -0.000203  -0.000043  -0.000843
     11      -0.000039   0.000006   0.000638
     12       0.000005   0.000063   0.033313
     13      -0.000105   0.000026   0.034557
     14      -0.000069  -0.000114  -0.039533
     15       0.026239   0.067930  -0.000047
     16       0.043016  -0.031208   0.000047
     17      -0.030141   0.026751  -0.000213
     18       0.000147   0.000061   0.002510
     19      -0.001526  -0.000548   0.001081
     20      -0.000197  -0.000440   0.000742
     21       0.000698  -0.000991   0.000134
     22       0.001271  -0.001032   0.001332
     23      -0.001114   0.000354   0.000105
     24       0.000016  -0.000121   0.000679
     25       0.000110  -0.000462   0.000430
     26      -0.000000  -0.000125  -0.000340
     27       0.004137  -0.004255  -0.001483
     28      -0.007511   0.007648   0.000952
     29       0.007334  -0.004697  -0.000638
     30       0.000183  -0.001009  -0.534699
     31       0.000396  -0.001287  -0.540956
     32      -0.000067   0.001399   0.646194
     33       0.232029  -0.145960   0.000399
     34      -0.597448   0.443367  -0.001001
     35       0.475928  -0.367718   0.001093
     36      -0.598462  -0.800306   0.001538
     37       0.014177  -0.000710   0.000390
     38      -0.027641  -0.001113   0.000545


-----------
IR SPECTRUM
-----------

 Mode    freq (cm**-1)   T**2         TX         TY         TZ
-------------------------------------------------------------------
   6:        44.80   12.556003  (  3.033286  -1.505000   1.044104)
   7:       205.61   48.428224  ( -5.625819   3.330031  -2.385222)
   8:       219.70    0.778256  ( -0.761429   0.440112  -0.069160)
   9:       256.05   14.146349  (  1.352945   2.682706   2.262516)
  10:       315.95   16.540084  ( -0.810622   3.398205   2.082109)
  11:       395.57   15.812465  ( -3.396873   0.290776  -2.046745)
  12:       488.88   76.311848  (  7.274084  -4.008094   2.708272)
  13:       506.59   16.836356  (  3.736746  -1.473164   0.838375)
  14:       639.14   10.168756  (  2.320696   2.158498  -0.352154)
  15:       749.38    2.119901  (  0.741831   1.141542   0.516208)
  16:       819.40   10.740012  (  1.126537   1.463638  -2.707155)
  17:       920.93  151.885624  (  0.137129   7.604345   9.697461)
  18:       941.72    5.548972  ( -0.441644  -1.782202  -1.475696)
  19:      1027.15    1.260777  (  0.243553   0.593813  -0.921328)
  20:      1078.48   43.113688  ( -0.888977   3.890529   5.214134)
  21:      1171.92    3.078351  ( -0.019765   0.209674   1.741837)
  22:      1201.88    9.509650  ( -1.650460  -2.495408  -0.747376)
  23:      1275.34  180.931717  ( -2.156077 -11.586202  -6.484056)
  24:      1289.30   22.381463  (  0.077009  -3.899936  -2.676945)
  25:      1365.40  189.046044  (  1.595647  12.080782   6.368254)
  26:      1383.18    2.796859  (  1.528665  -0.499029  -0.459362)
  27:      1417.59    9.367881  (  1.528899  -2.063440  -1.665102)
  28:      1454.81   13.307136  (  0.029552   0.242363   3.639715)
  29:      1475.10   18.958848  (  0.477654   4.181795   1.115027)
  30:      1653.43   24.287342  (  2.594639   3.533561  -2.251475)
  31:      1924.01  258.706506  (  9.396744  10.126137  -8.238267)
  32:      3029.69   18.924527  (  1.501894  -3.902447   1.199897)
  33:      3059.58   12.302535  (  3.278282   0.971865   0.781589)
  34:      3149.36   18.919822  (  0.139263  -4.346387  -0.096675)
  35:      3176.97    6.219518  ( -0.108473   0.556196   2.428662)
  36:      3533.20    4.447297  ( -1.158590  -1.282335   1.208546)
  37:      3608.61    6.878349  ( -2.214959   1.034996  -0.949257)
  38:      3861.83   54.656444  ( -4.019671  -5.105744   3.525629)

The first frequency considered to be a vibration is 6
The total number of vibrations considered is 33


--------------------------
THERMOCHEMISTRY AT 298.15K
--------------------------

Temperature         ... 298.15 K
Pressure            ... 1.00 atm
Total Mass          ... 89.09 AMU

Throughout the following assumptions are being made:
  (1) The electronic state is orbitally nondegenerate
  (2) There are no thermally accessible electronically excited states
  (3) Hindered rotations indicated by low frequency modes are not
      treated as such but are treated as vibrations and this may
      cause some error
  (4) All equations used are the standard statistical mechanics
      equations for an ideal gas
  (5) All vibrations are strictly harmonic

freq.      44.80  E(vib)   ...       0.53 
freq.     205.61  E(vib)   ...       0.35 
freq.     219.70  E(vib)   ...       0.33 
freq.     256.05  E(vib)   ...       0.30 
freq.     315.95  E(vib)   ...       0.25 
freq.     395.57  E(vib)   ...       0.20 
freq.     488.88  E(vib)   ...       0.15 
freq.     506.59  E(vib)   ...       0.14 
freq.     639.14  E(vib)   ...       0.09 
freq.     749.38  E(vib)   ...       0.06 
freq.     819.40  E(vib)   ...       0.05 
freq.     920.93  E(vib)   ...       0.03 
freq.     941.72  E(vib)   ...       0.03 
freq.    1027.15  E(vib)   ...       0.02 
freq.    1078.48  E(vib)   ...       0.02 
freq.    1171.92  E(vib)   ...       0.01 
freq.    1201.88  E(vib)   ...       0.01 
freq.    1275.34  E(vib)   ...       0.01 
freq.    1289.30  E(vib)   ...       0.01 
freq.    1365.40  E(vib)   ...       0.01 
freq.    1383.18  E(vib)   ...       0.00 
freq.    1417.59  E(vib)   ...       0.00 
freq.    1454.81  E(vib)   ...       0.00 
freq.    1475.10  E(vib)   ...       0.00 
freq.    1653.43  E(vib)   ...       0.00 
freq.    1924.01  E(vib)   ...       0.00 
freq.    3029.69  E(vib)   ...       0.00 
freq.    3059.58  E(vib)   ...       0.00 
freq.    3149.36  E(vib)   ...       0.00 
freq.    3176.97  E(vib)   ...       0.00 
freq.    3533.20  E(vib)   ...       0.00 
freq.    3608.61  E(vib)   ...       0.00 
freq.    3861.83  E(vib)   ...       0.00 

------------
INNER ENERGY
------------

The inner energy is: U= E(el) + E(ZPE) + E(vib) + E(rot) + E(trans)
    E(el)   - is the total energy from the electronic structure calculation
              = E(kin-el) + E(nuc-el) + E(el-el) + E(nuc-nuc)
    E(ZPE)  - the the zero temperature vibrational energy from the frequency calculation
    E(vib)  - the the finite temperature correction to E(ZPE) due to population
              of excited vibrational states
    E(rot)  - is the rotational thermal energy
    E(trans)- is the translational thermal energy

Summary of contributions to the inner energy U:
Electronic energy                ...   -323.14325177 Eh
Zero point energy                ...      0.10853315 Eh      68.11 kcal/mol
Thermal vibrational correction   ...      0.00413348 Eh       2.59 kcal/mol
Thermal rotational correction    ...      0.00141627 Eh       0.89 kcal/mol
Thermal translational correction ...      0.00141627 Eh       0.89 kcal/mol
-----------------------------------------------------------------------
Total thermal energy                   -323.02775260 Eh


Summary of corrections to the electronic energy:
(perhaps to be used in another calculation)
Total thermal correction                  0.00696603 Eh       4.37 kcal/mol
Non-thermal (ZPE) correction              0.10853315 Eh      68.11 kcal/mol
-----------------------------------------------------------------------
Total correction                          0.11549918 Eh      72.48 kcal/mol


--------
ENTHALPY
--------

The enthalpy is H = U + kB*T
                kB is Boltzmann's constant
Total free energy                 ...   -323.02775260 Eh 
Thermal Enthalpy correction       ...      0.00094421 Eh       0.59 kcal/mol
-----------------------------------------------------------------------
Total Enthalpy                    ...   -323.02680839 Eh


Vibrational entropy computed according to the QRRHO of S. Grimme
Chem.Eur.J. 2012 18 9955

check  

-------
ENTROPY
-------

The entropy contributions are T*S = T*(S(el)+S(vib)+S(rot)+S(trans)
     S(el)   - electronic entropy
     S(vib)  - vibrational entropy
     S(rot)  - rotational entropy
     S(trans)- translational entropy
The entropies will be listed as mutliplied by the temperature to get
units of energy

Electronic entropy                ...      0.00000000 Eh      0.00 kcal/mol
Vibrational entropy               ...      0.00692180 Eh      4.34 kcal/mol
Rotational entropy                ...      0.01159718 Eh      7.28 kcal/mol
Translational entropy             ...      0.01870769 Eh     11.74 kcal/mol
-----------------------------------------------------------------------
Final entropy term                ...      0.03722667 Eh     23.36 kcal/mol


CAUTION: The rotational entropy is not quite correctly treated here
         because it includes a symmetry number that is not yet correctly
         implemented in ORCA!
For a nonlinear molecule the correct rotational entropy is:
    S(rot) = R*(ln(qrot/sn)+1.5)
    R    = 8.31441 J/mol/K = 1.987191683e-3 kcal/mol/K
    qrot = 144553.2621521
    sn is the rotational symmetry number. We have assumed 3 here
       if it is different for your molecule then you should correct
       the printed rotational entropy by manually evaluating the equation
       as given above

For convenience we print out the resulting values for sn=1 - 12:
 sn= 1  qrot/sn=  144553.2622 T*S(rot)=     7.93 kcal/mol T*S(tot)=    24.01 kcal/mol
 sn= 2  qrot/sn=   72276.6311 T*S(rot)=     7.52 kcal/mol T*S(tot)=    23.60 kcal/mol
 sn= 3  qrot/sn=   48184.4207 T*S(rot)=     7.28 kcal/mol T*S(tot)=    23.36 kcal/mol
 sn= 4  qrot/sn=   36138.3155 T*S(rot)=     7.11 kcal/mol T*S(tot)=    23.19 kcal/mol
 sn= 5  qrot/sn=   28910.6524 T*S(rot)=     6.97 kcal/mol T*S(tot)=    23.06 kcal/mol
 sn= 6  qrot/sn=   24092.2104 T*S(rot)=     6.87 kcal/mol T*S(tot)=    22.95 kcal/mol
 sn= 7  qrot/sn=   20650.4660 T*S(rot)=     6.78 kcal/mol T*S(tot)=    22.86 kcal/mol
 sn= 8  qrot/sn=   18069.1578 T*S(rot)=     6.70 kcal/mol T*S(tot)=    22.78 kcal/mol
 sn= 9  qrot/sn=   16061.4736 T*S(rot)=     6.63 kcal/mol T*S(tot)=    22.71 kcal/mol
 sn=10  qrot/sn=   14455.3262 T*S(rot)=     6.56 kcal/mol T*S(tot)=    22.65 kcal/mol
 sn=11  qrot/sn=   13141.2057 T*S(rot)=     6.51 kcal/mol T*S(tot)=    22.59 kcal/mol
 sn=12  qrot/sn=   12046.1052 T*S(rot)=     6.46 kcal/mol T*S(tot)=    22.54 kcal/mol


-------------------
GIBBS FREE ENTHALPY
-------------------

The Gibbs free enthalpy is G = H - T*S

Total enthalpy                    ...   -323.02680839 Eh 
Total entropy correction          ...     -0.03722667 Eh    -23.36 kcal/mol
-----------------------------------------------------------------------
Final Gibbs free enthalpy         ...   -323.06403506 Eh

For completeness - the Gibbs free enthalpy minus the electronic energy
G-E(el)                           ...      0.07921671 Eh     49.71 kcal/mol


Timings for individual modules:

Sum of individual times         ...      999.938 sec (=  16.666 min)
GTO integral calculation        ...        2.814 sec (=   0.047 min)   0.3 %
SCF iterations                  ...       94.589 sec (=   1.576 min)   9.5 %
SCF Gradient evaluation         ...       41.543 sec (=   0.692 min)   4.2 %
Geometry relaxation             ...        2.064 sec (=   0.034 min)   0.2 %
Analytical frequency calculation...      858.928 sec (=  14.315 min)  85.9 %
                             ****ORCA TERMINATED NORMALLY****
TOTAL RUN TIME: 0 days 0 hours 16 minutes 41 seconds 235 msec
