
                                 *****************
                                 * O   R   C   A *
                                 *****************

           --- An Ab Initio, DFT and Semiempirical electronic structure package ---

                  #######################################################
                  #                        -***-                        #
                  #  Department of molecular theory and spectroscopy    #
                  #              Directorship: Frank Neese              #
                  # Max Planck Institute for Chemical Energy Conversion #
                  #                  D-45470 Muelheim/Ruhr              #
                  #                       Germany                       #
                  #                                                     #
                  #                  All rights reserved                #
                  #                        -***-                        #
                  #######################################################


                         Program Version 4.0.0 -  RELEASE  -


 With contributions from (in alphabetic order):
   Daniel Aravena         : Magnetic Properties
   Michael Atanasov       : Ab Initio Ligand Field Theory
   Ute Becker             : Parallelization
   Martin Brehm           : Molecular dynamics
   Dmytro Bykov           : SCF Hessian
   Vijay G. Chilkuri      : MRCI spin determinant printing
   Dipayan Datta          : RHF DLPNO-CCSD density
   Achintya Kumar Dutta   : EOM-CC, STEOM-CC
   Dmitry Ganyushin       : Spin-Orbit,Spin-Spin,Magnetic field MRCI
   Yang Guo               : DLPNO-NEVPT2, CIM, IAO-localization
   Andreas Hansen         : Spin unrestricted coupled pair/coupled cluster methods
   Lee Huntington         : MR-EOM, pCC
   Robert Izsak           : Overlap fitted RIJCOSX, COSX-SCS-MP3, EOM
   Christian Kollmar      : KDIIS, OOCD, Brueckner-CCSD(T), CCSD density
   Simone Kossmann        : Meta GGA functionals, TD-DFT gradient, OOMP2, MP2 Hessian
   Martin Krupicka        : AUTO-CI
   Dagmar Lenk            : GEPOL surface
   Dimitrios Liakos       : Extrapolation schemes; parallel MDCI
   Dimitrios Manganas     : ROCIS; embedding schemes
   Dimitrios Pantazis     : SARC Basis sets
   Taras Petrenko         : DFT Hessian,TD-DFT gradient, ASA, ECA, R-Raman, ABS, FL, XAS/XES, NRVS
   Peter Pinski           : DLPNO-MP2
   Christoph Reimann      : Effective Core Potentials
   Marius Retegan         : Local ZFS, SOC
   Christoph Riplinger    : Optimizer, TS searches, QM/MM, DLPNO-CCSD(T), (RO)-DLPNO pert. Triples
   Tobias Risthaus        : Range-separated hybrids, TD-DFT gradient, RPA, STAB
   Michael Roemelt        : Restricted open shell CIS
   Masaaki Saitow         : Open-shell DLPNO
   Barbara Sandhoefer     : DKH picture change effects
   Kantharuban Sivalingam : CASSCF convergence, NEVPT2, FIC-MRCI
   Georgi Stoychev        : AutoAux
   Boris Wezisla          : Elementary symmetry handling
   Frank Wennmohs         : Technical directorship


 We gratefully acknowledge several colleagues who have allowed us to
 interface, adapt or use parts of their codes:
   Stefan Grimme, W. Hujo, H. Kruse,             : VdW corrections, initial TS optimization,
                  C. Bannwarth                     DFT functionals, gCP, sTDA/sTD-DF
   Ed Valeev                                     : LibInt (2-el integral package), F12 methods
   Garnet Chan, S. Sharma, J. Yang, R. Olivares  : DMRG
   Ulf Ekstrom                                   : XCFun DFT Library
   Mihaly Kallay                                 : mrcc  (arbitrary order and MRCC methods)
   Jiri Pittner, Ondrej Demel                    : Mk-CCSD
   Frank Weinhold                                : gennbo (NPA and NBO analysis)
   Christopher J. Cramer and Donald G. Truhlar   : smd solvation model


 Your calculation uses the libint2 library for the computation of 2-el integrals
 For citations please refer to: http://libint.valeyev.net

 This ORCA versions uses:
   CBLAS   interface :  Fast vector & matrix operations
   LAPACKE interface :  Fast linear algebra routines




*****************************************
The coordinations will be read from file: valine.xyz
*****************************************


Your calculation utilizes the basis: def2-SVP
   F. Weigend and R. Ahlrichs, Phys. Chem. Chem. Phys. 7, 3297 (2005).

================================================================================
                                        WARNINGS
                       Please study these warnings very carefully!
================================================================================

Warning: TCutStore was < 0. Adjusted to Thresh (uncritical)

WARNING: Geometry Optimization
  ===> : Switching off AutoStart
         For restart on a previous wavefunction, please use MOREAD

INFO   : the flag for use of LIBINT has been found!

================================================================================
                                       INPUT FILE
================================================================================
NAME = valine.inp
|  1> ! PBE0
|  2> ! opt anfreq
|  3> * xyzfile 0 1 valine.xyz **                         ****END OF INPUT****
================================================================================

                       *****************************
                       * Geometry Optimization Run *
                       *****************************

Geometry optimization settings:
Update method            Update   .... BFGS
Choice of coordinates    CoordSys .... Redundant Internals
Initial Hessian          InHess   .... Almoef's Model

Convergence Tolerances:
Energy Change            TolE     .... 5.0000e-006 Eh
Max. Gradient            TolMAXG  .... 3.0000e-004 Eh/bohr
RMS Gradient             TolRMSG  .... 1.0000e-004 Eh/bohr
Max. Displacement        TolMAXD  .... 4.0000e-003 bohr
RMS Displacement         TolRMSD  .... 2.0000e-003 bohr

------------------------------------------------------------------------------
                        ORCA OPTIMIZATION COORDINATE SETUP
------------------------------------------------------------------------------

The optimization will be done in new redundant internal coordinates
Making redundant internal coordinates   ...  (new redundants) done
Evaluating the initial hessian          ...  (Almloef) done
Evaluating the coordinates              ...  done
Calculating the B-matrix                .... done
Calculating the G-matrix                .... done
Diagonalizing the G-matrix              .... done
Small eigenvalue found = 2.925e-002
The first mode is                       ....   39
The number of degrees of freedom        ....   51

    -----------------------------------------------------------------
                    Redundant Internal Coordinates


    -----------------------------------------------------------------
         Definition                    Initial Value    Approx d2E/dq
    -----------------------------------------------------------------
      1. B(C   1,C   0)                  1.5368         0.364343   
      2. B(C   2,C   1)                  1.5397         0.360463   
      3. B(C   3,C   1)                  1.5624         0.331652   
      4. B(C   4,C   3)                  1.5263         0.378751   
      5. B(O   5,C   4)                  1.2219         1.037553   
      6. B(O   6,C   4)                  1.3506         0.646833   
      7. B(N   7,C   3)                  1.4678         0.420463   
      8. B(H   8,C   0)                  1.1115         0.332799   
      9. B(H   9,C   0)                  1.1119         0.332297   
     10. B(H  10,C   0)                  1.1064         0.339058   
     11. B(H  11,C   1)                  1.1128         0.331184   
     12. B(H  12,C   2)                  1.1112         0.333133   
     13. B(H  13,C   2)                  1.1113         0.332971   
     14. B(H  14,C   2)                  1.1101         0.334511   
     15. B(H  15,C   3)                  1.1126         0.331419   
     16. B(H  16,O   6)                  0.9662         0.508193   
     17. B(H  17,N   7)                  1.0456         0.379626   
     18. B(H  18,N   7)                  1.0457         0.379503   
     19. A(H   8,C   0,H  10)          106.0529         0.284586   
     20. A(C   1,C   0,H  10)          111.1940         0.319823   
     21. A(H   8,C   0,H   9)          108.4969         0.283696   
     22. A(H   9,C   0,H  10)          110.1199         0.284519   
     23. A(C   1,C   0,H   8)          110.1085         0.318851   
     24. A(C   1,C   0,H   9)          110.7305         0.318773   
     25. A(C   0,C   1,C   3)          113.6715         0.354551   
     26. A(C   2,C   1,C   3)          110.3821         0.353908   
     27. A(C   3,C   1,H  11)          108.8187         0.313765   
     28. A(C   2,C   1,H  11)          107.7316         0.318043   
     29. A(C   0,C   1,H  11)          107.6230         0.318598   
     30. A(C   0,C   1,C   2)          108.4175         0.359605   
     31. A(H  13,C   2,H  14)          107.1701         0.284012   
     32. A(C   1,C   2,H  14)          111.0718         0.318561   
     33. A(H  12,C   2,H  13)          108.7090         0.283830   
     34. A(C   1,C   2,H  13)          110.3218         0.318322   
     35. A(C   1,C   2,H  12)          110.6901         0.318347   
     36. A(H  12,C   2,H  14)          108.7761         0.284033   
     37. A(N   7,C   3,H  15)          107.3135         0.324251   
     38. A(C   4,C   3,H  15)          107.3721         0.320660   
     39. A(C   1,C   3,H  15)          109.1342         0.313801   
     40. A(C   4,C   3,N   7)          110.0192         0.369346   
     41. A(C   1,C   3,N   7)          109.0722         0.361045   
     42. A(C   1,C   3,C   4)          113.7230         0.356892   
     43. A(O   5,C   4,O   6)          118.2787         0.474038   
     44. A(C   3,C   4,O   6)          121.3467         0.398054   
     45. A(C   3,C   4,O   5)          120.2629         0.432940   
     46. A(C   4,O   6,H  16)          122.5707         0.371359   
     47. A(H  17,N   7,H  18)          109.5001         0.290918   
     48. A(C   3,N   7,H  18)          110.2687         0.328750   
     49. A(C   3,N   7,H  17)          110.8220         0.328768   
     50. D(C   3,C   1,C   0,H  10)    -65.0064         0.010633   
     51. D(H  11,C   1,C   0,H   9)    178.3458         0.010633   
     52. D(H  11,C   1,C   0,H  10)     55.5780         0.010633   
     53. D(C   3,C   1,C   0,H   8)    177.7483         0.010633   
     54. D(C   2,C   1,C   0,H   9)    -65.3851         0.010633   
     55. D(C   2,C   1,C   0,H   8)     54.6018         0.010633   
     56. D(H  11,C   1,C   0,H   8)    -61.6673         0.010633   
     57. D(C   3,C   1,C   0,H   9)     57.7614         0.010633   
     58. D(C   2,C   1,C   0,H  10)    171.8471         0.010633   
     59. D(H  13,C   2,C   1,C   3)    178.0765         0.010422   
     60. D(H  12,C   2,C   1,H  11)    179.7503         0.010422   
     61. D(H  13,C   2,C   1,C   0)    -56.8132         0.010422   
     62. D(H  12,C   2,C   1,C   3)    -61.5588         0.010422   
     63. D(H  13,C   2,C   1,H  11)     59.3856         0.010422   
     64. D(H  14,C   2,C   1,H  11)    -59.3034         0.010422   
     65. D(H  14,C   2,C   1,C   3)     59.3874         0.010422   
     66. D(H  14,C   2,C   1,C   0)   -175.5022         0.010422   
     67. D(H  12,C   2,C   1,C   0)     63.5515         0.010422   
     68. D(H  15,C   3,C   1,C   2)     60.4979         0.008948   
     69. D(H  15,C   3,C   1,C   0)    -61.5670         0.008948   
     70. D(N   7,C   3,C   1,H  11)     61.5712         0.008948   
     71. D(N   7,C   3,C   1,C   2)    -56.4545         0.008948   
     72. D(N   7,C   3,C   1,C   0)   -178.5194         0.008948   
     73. D(C   4,C   3,C   1,H  11)    -61.6302         0.008948   
     74. D(C   4,C   3,C   1,C   2)   -179.6560         0.008948   
     75. D(H  15,C   3,C   1,H  11)    178.5237         0.008948   
     76. D(C   4,C   3,C   1,C   0)     58.2792         0.008948   
     77. D(O   6,C   4,C   3,C   1)    -70.4668         0.010709   
     78. D(O   5,C   4,C   3,H  15)   -125.7196         0.010709   
     79. D(O   5,C   4,C   3,N   7)     -9.2412         0.010709   
     80. D(O   5,C   4,C   3,C   1)    113.4414         0.010709   
     81. D(O   6,C   4,C   3,H  15)     50.3722         0.010709   
     82. D(O   6,C   4,C   3,N   7)    166.8506         0.010709   
     83. D(H  16,O   6,C   4,O   5)    171.8311         0.030897   
     84. D(H  16,O   6,C   4,C   3)     -4.3360         0.030897   
     85. D(H  18,N   7,C   3,H  15)     57.0815         0.015074   
     86. D(H  18,N   7,C   3,C   4)    -59.4337         0.015074   
     87. D(H  18,N   7,C   3,C   1)    175.1842         0.015074   
     88. D(H  17,N   7,C   3,H  15)    178.4909         0.015074   
     89. D(H  17,N   7,C   3,C   4)     61.9757         0.015074   
     90. D(H  17,N   7,C   3,C   1)    -63.4063         0.015074   
    -----------------------------------------------------------------

Number of atoms                         .... 19
Number of degrees of freedom            .... 90

         *************************************************************
         *                GEOMETRY OPTIMIZATION CYCLE   1            *
         *************************************************************
---------------------------------
CARTESIAN COORDINATES (ANGSTROEM)
---------------------------------
  C      0.895740   -0.077580   -0.016650
  C      2.427270    0.047170    0.008680
  C      2.967890   -0.313740   -1.387110
  C      2.934460    1.460640    0.439910
  C      2.448660    1.892380    1.820870
  O      3.243440    2.025700    2.739390
  O      1.155110    2.211040    2.042700
  N      4.401490    1.478030    0.395200
  H      0.600560   -1.089580   -0.368890
  H      0.450600    0.677700   -0.700510
  H      0.468850    0.029640    0.998420
  H      2.814960   -0.708180    0.728010
  H      2.605160    0.410370   -2.147920
  H      2.635020   -1.333310   -1.678160
  H      4.077910   -0.316180   -1.396810
  H      2.571930    2.216890   -0.291200
  H      0.497860    2.240230    1.335050
  H      4.802390    0.801200    1.084050
  H      4.758840    2.438900    0.601470

----------------------------
CARTESIAN COORDINATES (A.U.)
----------------------------
  NO LB      ZA    FRAG     MASS         X           Y           Z
   0 C     6.0000    0    12.011    1.692703   -0.146605   -0.031464
   1 C     6.0000    0    12.011    4.586876    0.089138    0.016403
   2 C     6.0000    0    12.011    5.608499   -0.592883   -2.621258
   3 C     6.0000    0    12.011    5.545326    2.760210    0.831309
   4 C     6.0000    0    12.011    4.627297    3.576080    3.440946
   5 O     8.0000    0    15.999    6.129213    3.828018    5.176697
   6 O     8.0000    0    15.999    2.182842    4.178260    3.860144
   7 N     7.0000    0    14.007    8.317611    2.793072    0.746820
   8 H     1.0000    0     1.008    1.134894   -2.059008   -0.697101
   9 H     1.0000    0     1.008    0.851511    1.280667   -1.323772
  10 H     1.0000    0     1.008    0.885998    0.056011    1.886740
  11 H     1.0000    0     1.008    5.319503   -1.338266    1.375740
  12 H     1.0000    0     1.008    4.923039    0.775487   -4.058981
  13 H     1.0000    0     1.008    4.979466   -2.519591   -3.171263
  14 H     1.0000    0     1.008    7.706133   -0.597494   -2.639588
  15 H     1.0000    0     1.008    4.860243    4.189315   -0.550288
  16 H     1.0000    0     1.008    0.940819    4.233421    2.522879
  17 H     1.0000    0     1.008    9.075202    1.514049    2.048558
  18 H     1.0000    0     1.008    8.992904    4.608853    1.136614

--------------------------------
INTERNAL COORDINATES (ANGSTROEM)
--------------------------------
 C      0   0   0     0.000000000000     0.00000000     0.00000000
 C      1   0   0     1.536811085430     0.00000000     0.00000000
 C      2   1   0     1.539725864107   108.41752473     0.00000000
 C      2   1   3     1.562401500863   113.67151754   123.14648928
 C      4   2   1     1.526254103746   113.72300488    58.27917614
 O      5   4   2     1.221936357263   120.26293671   113.44139170
 O      5   4   2     1.350564454959   121.34672883   289.53317627
 N      4   2   1     1.467814162999   109.07221889   181.48058344
 H      1   2   3     1.111462212583   110.10852206    54.60181380
 H      1   2   3     1.111873193130   110.73047098   294.61487349
 H      1   2   3     1.106389761974   111.19395730   171.84709512
 H      2   1   3     1.112786056482   107.62299400   243.73093009
 H      3   2   1     1.111188643345   110.69012310    63.55151323
 H      3   2   1     1.111321521568   110.32175587   303.18683591
 H      3   2   1     1.110065062958   111.07175118   184.49776888
 H      4   2   1     1.112593319906   109.13418454   298.43304346
 H      7   5   4     0.966228824399   122.57072360   355.66404864
 H      8   4   2     1.045626119318   110.82200500   296.59365842
 H      8   4   2     1.045713867317   110.26872441   175.18422854

---------------------------
INTERNAL COORDINATES (A.U.)
---------------------------
 C      0   0   0     0.000000000000     0.00000000     0.00000000
 C      1   0   0     2.904152071037     0.00000000     0.00000000
 C      2   1   0     2.909660204477   108.41752473     0.00000000
 C      2   1   3     2.952510947859   113.67151754   123.14648928
 C      4   2   1     2.884202266852   113.72300488    58.27917614
 O      5   4   2     2.309125068308   120.26293671   113.44139170
 O      5   4   2     2.552196946082   121.34672883   289.53317627
 N      4   2   1     2.773766783559   109.07221889   181.48058344
 H      1   2   3     2.100359189984   110.10852206    54.60181380
 H      1   2   3     2.101135830663   110.73047098   294.61487349
 H      1   2   3     2.090773647504   111.19395730   171.84709512
 H      2   1   3     2.102860892397   107.62299400   243.73093009
 H      3   2   1     2.099842219046   110.69012310    63.55151323
 H      3   2   1     2.100093322496   110.32175587   303.18683591
 H      3   2   1     2.097718959825   111.07175118   184.49776888
 H      4   2   1     2.102496673053   109.13418454   298.43304346
 H      7   5   4     1.825907860815   122.57072360   355.66404864
 H      8   4   2     1.975947003986   110.82200500   296.59365842
 H      8   4   2     1.976112823674   110.26872441   175.18422854

---------------------
BASIS SET INFORMATION
---------------------
There are 4 groups of distinct atoms

 Group   1 Type C   : 7s4p1d contracted to 3s2p1d pattern {511/31/1}
 Group   2 Type O   : 7s4p1d contracted to 3s2p1d pattern {511/31/1}
 Group   3 Type N   : 7s4p1d contracted to 3s2p1d pattern {511/31/1}
 Group   4 Type H   : 4s1p contracted to 2s1p pattern {31/1}

Atom   0C    basis set group =>   1
Atom   1C    basis set group =>   1
Atom   2C    basis set group =>   1
Atom   3C    basis set group =>   1
Atom   4C    basis set group =>   1
Atom   5O    basis set group =>   2
Atom   6O    basis set group =>   2
Atom   7N    basis set group =>   3
Atom   8H    basis set group =>   4
Atom   9H    basis set group =>   4
Atom  10H    basis set group =>   4
Atom  11H    basis set group =>   4
Atom  12H    basis set group =>   4
Atom  13H    basis set group =>   4
Atom  14H    basis set group =>   4
Atom  15H    basis set group =>   4
Atom  16H    basis set group =>   4
Atom  17H    basis set group =>   4
Atom  18H    basis set group =>   4
-------------------------
ECP PARAMETER INFORMATION
-------------------------



------------------------------------------------------------------------------
                           ORCA GTO INTEGRAL CALCULATION
------------------------------------------------------------------------------

                         BASIS SET STATISTICS AND STARTUP INFO

 # of primitive gaussian shells          ...  151
 # of primitive gaussian functions       ...  269
 # of contracted shells                  ...   81
 # of contracted basis functions         ...  167
 Highest angular momentum                ...    2
 Maximum contraction depth               ...    5
 Integral package used                   ... LIBINT
 Integral threshhold            Thresh   ... 2.500e-011
 Primitive cut-off              TCut     ... 2.500e-012


------------------------------ INTEGRAL EVALUATION ----------------------------


 * One electron integrals 

   ECP integrals                          Pre-screening matrix                    ... done
 Shell pair data                         ... done (   0.001 sec)

Timings:
 Total evaluation time               ...     0.001 sec (   0.000 min)
 One electron matrix time            ...     0.020 sec (   0.000 min) =2000.0%
 Schwartz matrix evaluation time     ...     0.100 sec (   0.002 min) =10000.0%

-------------------------------------------------------------------------------
                                 ORCA SCF
-------------------------------------------------------------------------------

------------
SCF SETTINGS
------------
Hamiltonian:
 Density Functional     Method          .... DFT(GTOs)
 Exchange Functional    Exchange        .... PBE
   PBE kappa parameter   XKappa         ....  0.804000
   PBE mue parameter    XMuePBE         ....  0.219520
 Correlation Functional Correlation     .... PBE
   PBE beta parameter  CBetaPBE         ....  0.066725
 LDA part of GGA corr.  LDAOpt          .... PW91-LDA
 Gradients option       PostSCFGGA      .... off
 Hybrid DFT is turned on
   Fraction HF Exchange ScalHFX         ....  0.250000
   Scaling of DF-GGA-X  ScalDFX         ....  0.750000
   Scaling of DF-GGA-C  ScalDFC         ....  1.000000
   Scaling of DF-LDA-C  ScalLDAC        ....  1.000000
   Perturbative correction              ....  0.000000
   NL short-range parameter             ....  6.900000


General Settings:
 Integral files         IntName         .... valine
 Hartree-Fock type      HFTyp           .... RHF
 Total Charge           Charge          ....    0
 Multiplicity           Mult            ....    1
 Number of Electrons    NEL             ....   64
 Basis Dimension        Dim             ....  167
 Nuclear Repulsion      ENuc            ....    403.3323812133 Eh

Convergence Acceleration:
 DIIS                   CNVDIIS         .... on
   Start iteration      DIISMaxIt       ....    12
   Startup error        DIISStart       ....  0.200000
   # of expansion vecs  DIISMaxEq       ....     5
   Bias factor          DIISBfac        ....   1.050
   Max. coefficient     DIISMaxC        ....  10.000
 Newton-Raphson         CNVNR           .... off
 SOSCF                  CNVSOSCF        .... on
   Start iteration      SOSCFMaxIt      ....   150
   Startup grad/error   SOSCFStart      ....  0.003300
 Level Shifting         CNVShift        .... on
   Level shift para.    LevelShift      ....    0.2500
   Turn off err/grad.   ShiftErr        ....    0.0010
 Zerner damping         CNVZerner       .... off
 Static damping         CNVDamp         .... on
   Fraction old density DampFac         ....    0.7000
   Max. Damping (<1)    DampMax         ....    0.9800
   Min. Damping (>=0)   DampMin         ....    0.0000
   Turn off err/grad.   DampErr         ....    0.1000
 Fernandez-Rico         CNVRico         .... off

SCF Procedure:
 Maximum # iterations   MaxIter         ....   125
 SCF integral mode      SCFMode         .... Direct
   Integral package                     .... LIBINT
 Reset frequeny         DirectResetFreq ....    20
 Integral Threshold     Thresh          .... 2.500e-011 Eh
 Primitive CutOff       TCut            .... 2.500e-012 Eh

Convergence Tolerance:
 Convergence Check Mode ConvCheckMode   .... Total+1el-Energy
 Convergence forced     ConvForced      .... 0
 Energy Change          TolE            .... 1.000e-008 Eh
 1-El. energy change                    .... 1.000e-005 Eh
 Orbital Gradient       TolG            .... 1.000e-005
 Orbital Rotation angle TolX            .... 1.000e-005
 DIIS Error             TolErr          .... 5.000e-007


Diagonalization of the overlap matrix:
Smallest eigenvalue                        ... 1.314e-003
Time for diagonalization                   ...    0.001 sec
Threshold for overlap eigenvalues          ... 1.000e-008
Number of eigenvalues below threshold      ... 0
Time for construction of square roots      ...    0.004 sec
Total time needed                          ...    0.005 sec

-------------------
DFT GRID GENERATION
-------------------

General Integration Accuracy     IntAcc      ...  4.340
Radial Grid Type                 RadialGrid  ... Gauss-Chebyshev
Angular Grid (max. acc.)         AngularGrid ... Lebedev-110
Angular grid pruning method      GridPruning ... 3 (G Style)
Weight generation scheme         WeightScheme... Becke
Basis function cutoff            BFCut       ...   1.0000e-011
Integration weight cutoff        WCut        ...   1.0000e-014
Grids for H and He will be reduced by one unit

# of grid points (after initial pruning)     ...  22148 (   0.0 sec)
# of grid points (after weights+screening)   ...  20251 (   0.1 sec)
nearest neighbour list constructed           ...    0.0 sec
Grid point re-assignment to atoms done       ...    0.0 sec
Grid point division into batches done        ...    0.0 sec
Reduced shell lists constructed in    0.1 sec

Total number of grid points                  ...    20251
Total number of batches                      ...      325
Average number of points per batch           ...       62
Average number of grid points per atom       ...     1066
Average number of shells per batch           ...    59.77 (73.79%)
Average number of basis functions per batch  ...   120.08 (71.91%)
Average number of large shells per batch     ...    46.56 (77.90%)
Average number of large basis fcns per batch ...    90.33 (75.22%)
Maximum spatial batch extension              ...  17.66, 19.69, 19.50 au
Average spatial batch extension              ...   3.55,  3.58,  3.67 au

Time for grid setup =    0.177 sec

------------------------------
INITIAL GUESS: MODEL POTENTIAL
------------------------------
Loading Hartree-Fock densities                     ... done
Calculating cut-offs                               ... done
Setting up the integral package                    ... done
Initializing the effective Hamiltonian             ... done
Starting the Coulomb interaction                   ... done (   0.1 sec)
Reading the grid                                   ... done
Mapping shells                                     ... done
Starting the XC term evaluation                    ... done (   0.2 sec)
  promolecular density results
     # of electrons  =     63.993812921
     EX              =    -51.618677426
     EC              =     -2.117276186
     EX+EC           =    -53.735953612
Transforming the Hamiltonian                       ... done (   0.0 sec)
Diagonalizing the Hamiltonian                      ... done (   0.0 sec)
Back transforming the eigenvectors                 ... done (   0.0 sec)
Now organizing SCF variables                       ... done
                      ------------------
                      INITIAL GUESS DONE (   0.5 sec)
                      ------------------
--------------
SCF ITERATIONS
--------------
ITER       Energy         Delta-E        Max-DP      RMS-DP      [F,P]     Damp
               ***  Starting incremental Fock matrix formation  ***
  0   -401.3110989111   0.000000000000 0.09561640  0.00278921  0.2579141 0.7000
  1   -401.4526278503  -0.141528939148 0.05586041  0.00178369  0.1063425 0.7000
                               ***Turning on DIIS***
  2   -401.5043087008  -0.051680850561 0.06494562  0.00257334  0.0362312 0.0000
  3   -401.5874258018  -0.083117100925 0.04394313  0.00126493  0.0580553 0.0000
  4   -401.6058314588  -0.018405657006 0.01296181  0.00036461  0.0128336 0.0000
  5   -401.6069302488  -0.001098790079 0.00401922  0.00011710  0.0062792 0.0000
                      *** Initiating the SOSCF procedure ***
                           *** Shutting down DIIS ***
                      *** Re-Reading the Fockian *** 
                      *** Removing any level shift *** 
ITER      Energy       Delta-E        Grad      Rot      Max-DP    RMS-DP
  6   -401.60700737  -0.0000771164  0.000241  0.000241  0.000951  0.000038
               *** Restarting incremental Fock matrix formation ***
  7   -401.60701342  -0.0000060562  0.000146  0.000449  0.000705  0.000026
  8   -401.60701355  -0.0000001302  0.000254  0.000361  0.000401  0.000010
  9   -401.60701447  -0.0000009136  0.000070  0.000141  0.000177  0.000006
 10   -401.60701442   0.0000000482  0.000077  0.000075  0.000106  0.000003
 11   -401.60701452  -0.0000000991  0.000010  0.000012  0.000040  0.000001
 12   -401.60701452   0.0000000002  0.000011  0.000005  0.000022  0.000001
                  ***Gradient check signals convergence***
              ***Rediagonalizing the Fockian in SOSCF/NRSCF***

               *****************************************************
               *                     SUCCESS                       *
               *           SCF CONVERGED AFTER  13 CYCLES          *
               *****************************************************

Setting up the final grid:

General Integration Accuracy     IntAcc      ...  4.670
Radial Grid Type                 RadialGrid  ... Gauss-Chebyshev
Angular Grid (max. acc.)         AngularGrid ... Lebedev-302
Angular grid pruning method      GridPruning ... 3 (G Style)
Weight generation scheme         WeightScheme... Becke
Basis function cutoff            BFCut       ...   1.0000e-011
Integration weight cutoff        WCut        ...   1.0000e-014
Grids for H and He will be reduced by one unit

# of grid points (after initial pruning)     ...  87030 (   0.0 sec)
# of grid points (after weights+screening)   ...  78351 (   0.2 sec)
nearest neighbour list constructed           ...    0.0 sec
Grid point re-assignment to atoms done       ...    0.0 sec
Grid point division into batches done        ...    0.2 sec
Reduced shell lists constructed in    0.7 sec

Total number of grid points                  ...    78351
Total number of batches                      ...     1236
Average number of points per batch           ...       63
Average number of grid points per atom       ...     4124
Average number of shells per batch           ...    54.84 (67.70%)
Average number of basis functions per batch  ...   109.04 (65.29%)
Average number of large shells per batch     ...    41.76 (76.15%)
Average number of large basis fcns per batch ...    79.95 (73.32%)
Maximum spatial batch extension              ...  17.13, 18.96, 19.27 au
Average spatial batch extension              ...   2.33,  2.33,  2.35 au

Final grid set up in    0.9 sec
Final integration                            ... done (   1.0 sec)
Change in XC energy                          ...    -0.000572046
Integrated number of electrons               ...    64.000263039
Previous integrated no of electrons          ...    63.997298787

----------------
TOTAL SCF ENERGY
----------------

Total Energy       :         -401.60758656 Eh          -10928.29801 eV

Components:
Nuclear Repulsion  :          403.33238121 Eh           10975.23206 eV
Electronic Energy  :         -804.93996778 Eh          -21903.53008 eV
One Electron Energy:        -1345.84908185 Eh          -36622.41536 eV
Two Electron Energy:          540.90911407 Eh           14718.88529 eV

Virial components:
Potential Energy   :         -799.12796428 Eh          -21745.37742 eV
Kinetic Energy     :          397.52037771 Eh           10817.07941 eV
Virial Ratio       :            2.01028176


DFT components:
N(Alpha)           :       32.000131519470 electrons
N(Beta)            :       32.000131519470 electrons
N(Total)           :       64.000263038939 electrons
E(X)               :      -39.444029751052 Eh       
E(C)               :       -2.137917089196 Eh       
E(XC)              :      -41.581946840248 Eh       

---------------
SCF CONVERGENCE
---------------

  Last Energy change         ...  -2.3251e-009  Tolerance :  1.0000e-008
  Last MAX-Density change    ...   3.4187e-006  Tolerance :  1.0000e-007
  Last RMS-Density change    ...   9.4461e-008  Tolerance :  5.0000e-009
  Last Orbital Gradient      ...   6.3196e-007  Tolerance :  1.0000e-005
  Last Orbital Rotation      ...   7.4176e-007  Tolerance :  1.0000e-005

             **** THE GBW FILE WAS UPDATED (valine.gbw) ****
             **** DENSITY FILE WAS UPDATED (valine.scfp.tmp) ****
             **** ENERGY FILE WAS UPDATED (valine.en.tmp) ****
----------------
ORBITAL ENERGIES
----------------

  NO   OCC          E(Eh)            E(eV) 
   0   2.0000     -19.257920      -524.0346 
   1   2.0000     -19.191392      -522.2243 
   2   2.0000     -14.377024      -391.2187 
   3   2.0000     -10.361137      -281.9409 
   4   2.0000     -10.284981      -279.8686 
   5   2.0000     -10.259318      -279.1702 
   6   2.0000     -10.244784      -278.7747 
   7   2.0000     -10.229566      -278.3606 
   8   2.0000      -1.114456       -30.3259 
   9   2.0000      -1.026076       -27.9209 
  10   2.0000      -0.903274       -24.5793 
  11   2.0000      -0.814902       -22.1746 
  12   2.0000      -0.712926       -19.3997 
  13   2.0000      -0.701049       -19.0765 
  14   2.0000      -0.649611       -17.6768 
  15   2.0000      -0.599385       -16.3101 
  16   2.0000      -0.544358       -14.8127 
  17   2.0000      -0.506330       -13.7779 
  18   2.0000      -0.487359       -13.2617 
  19   2.0000      -0.464423       -12.6376 
  20   2.0000      -0.457517       -12.4497 
  21   2.0000      -0.438181       -11.9235 
  22   2.0000      -0.417256       -11.3541 
  23   2.0000      -0.406390       -11.0584 
  24   2.0000      -0.401607       -10.9283 
  25   2.0000      -0.393451       -10.7063 
  26   2.0000      -0.364646        -9.9225 
  27   2.0000      -0.353206        -9.6112 
  28   2.0000      -0.349142        -9.5006 
  29   2.0000      -0.326591        -8.8870 
  30   2.0000      -0.283831        -7.7234 
  31   2.0000      -0.252829        -6.8798 
  32   0.0000       0.006059         0.1649 
  33   0.0000       0.042524         1.1571 
  34   0.0000       0.069163         1.8820 
  35   0.0000       0.079309         2.1581 
  36   0.0000       0.088741         2.4148 
  37   0.0000       0.121254         3.2995 
  38   0.0000       0.130931         3.5628 
  39   0.0000       0.138858         3.7785 
  40   0.0000       0.140843         3.8325 
  41   0.0000       0.156752         4.2654 
  42   0.0000       0.160856         4.3771 
  43   0.0000       0.169401         4.6096 
  44   0.0000       0.211692         5.7604 
  45   0.0000       0.218081         5.9343 
  46   0.0000       0.234072         6.3694 
  47   0.0000       0.244291         6.6475 
  48   0.0000       0.259594         7.0639 
  49   0.0000       0.339537         9.2393 
  50   0.0000       0.381981        10.3942 
  51   0.0000       0.404281        11.0011 
  52   0.0000       0.427518        11.6334 
  53   0.0000       0.445347        12.1185 
  54   0.0000       0.464062        12.6278 
  55   0.0000       0.473518        12.8851 
  56   0.0000       0.505743        13.7620 
  57   0.0000       0.533654        14.5215 
  58   0.0000       0.568624        15.4731 
  59   0.0000       0.574805        15.6412 
  60   0.0000       0.585420        15.9301 
  61   0.0000       0.607049        16.5186 
  62   0.0000       0.614671        16.7260 
  63   0.0000       0.637985        17.3605 
  64   0.0000       0.649456        17.6726 
  65   0.0000       0.654053        17.7977 
  66   0.0000       0.663628        18.0582 
  67   0.0000       0.670880        18.2556 
  68   0.0000       0.678290        18.4572 
  69   0.0000       0.685752        18.6603 
  70   0.0000       0.696626        18.9562 
  71   0.0000       0.704668        19.1750 
  72   0.0000       0.712867        19.3981 
  73   0.0000       0.717666        19.5287 
  74   0.0000       0.723653        19.6916 
  75   0.0000       0.742355        20.2005 
  76   0.0000       0.765978        20.8433 
  77   0.0000       0.781294        21.2601 
  78   0.0000       0.854070        23.2404 
  79   0.0000       0.857656        23.3380 
  80   0.0000       0.890512        24.2321 
  81   0.0000       0.918543        24.9948 
  82   0.0000       0.966670        26.3044 
  83   0.0000       1.006950        27.4005 
  84   0.0000       1.036976        28.2176 
  85   0.0000       1.072320        29.1793 
  86   0.0000       1.081529        29.4299 
  87   0.0000       1.101392        29.9704 
  88   0.0000       1.121607        30.5205 
  89   0.0000       1.186628        32.2898 
  90   0.0000       1.201345        32.6903 
  91   0.0000       1.234821        33.6012 
  92   0.0000       1.279175        34.8081 
  93   0.0000       1.297950        35.3190 
  94   0.0000       1.304341        35.4929 
  95   0.0000       1.341603        36.5069 
  96   0.0000       1.379798        37.5462 
  97   0.0000       1.406501        38.2728 
  98   0.0000       1.438263        39.1371 
  99   0.0000       1.507623        41.0245 
 100   0.0000       1.540610        41.9221 
 101   0.0000       1.542573        41.9755 
 102   0.0000       1.557190        42.3733 
 103   0.0000       1.582149        43.0525 
 104   0.0000       1.622072        44.1388 
 105   0.0000       1.649618        44.8884 
 106   0.0000       1.682916        45.7945 
 107   0.0000       1.711964        46.5849 
 108   0.0000       1.726787        46.9883 
 109   0.0000       1.743307        47.4378 
 110   0.0000       1.758024        47.8383 
 111   0.0000       1.772326        48.2274 
 112   0.0000       1.791457        48.7480 
 113   0.0000       1.801088        49.0101 
 114   0.0000       1.812174        49.3118 
 115   0.0000       1.832005        49.8514 
 116   0.0000       1.849106        50.3167 
 117   0.0000       1.864601        50.7384 
 118   0.0000       1.881595        51.2008 
 119   0.0000       1.892649        51.5016 
 120   0.0000       1.923645        52.3450 
 121   0.0000       1.931404        52.5562 
 122   0.0000       1.969351        53.5888 
 123   0.0000       1.978766        53.8449 
 124   0.0000       1.990756        54.1712 
 125   0.0000       2.014297        54.8118 
 126   0.0000       2.045180        55.6522 
 127   0.0000       2.081435        56.6387 
 128   0.0000       2.106502        57.3208 
 129   0.0000       2.135969        58.1227 
 130   0.0000       2.192170        59.6520 
 131   0.0000       2.206370        60.0384 
 132   0.0000       2.257271        61.4235 
 133   0.0000       2.294162        62.4273 
 134   0.0000       2.311878        62.9094 
 135   0.0000       2.352828        64.0237 
 136   0.0000       2.366624        64.3991 
 137   0.0000       2.408446        65.5372 
 138   0.0000       2.442434        66.4620 
 139   0.0000       2.475842        67.3711 
 140   0.0000       2.534640        68.9711 
 141   0.0000       2.544167        69.2303 
 142   0.0000       2.595101        70.6163 
 143   0.0000       2.642805        71.9144 
 144   0.0000       2.669628        72.6443 
 145   0.0000       2.718197        73.9659 
 146   0.0000       2.725578        74.1667 
 147   0.0000       2.755995        74.9944 
 148   0.0000       2.804219        76.3067 
 149   0.0000       2.833795        77.1115 
 150   0.0000       2.842949        77.3606 
 151   0.0000       2.849811        77.5473 
 152   0.0000       2.888599        78.6028 
 153   0.0000       2.912657        79.2574 
 154   0.0000       2.929719        79.7217 
 155   0.0000       2.992456        81.4289 
 156   0.0000       3.010081        81.9085 
 157   0.0000       3.037315        82.6496 
 158   0.0000       3.070894        83.5633 
 159   0.0000       3.092217        84.1435 
 160   0.0000       3.177434        86.4624 
 161   0.0000       3.247767        88.3762 
 162   0.0000       3.292609        89.5965 
 163   0.0000       3.381746        92.0220 
 164   0.0000       3.509414        95.4960 
 165   0.0000       3.648538        99.2818 
 166   0.0000       3.828484       104.1783 

                    ********************************
                    * MULLIKEN POPULATION ANALYSIS *
                    ********************************

-----------------------
MULLIKEN ATOMIC CHARGES
-----------------------
   0 C :   -0.075093
   1 C :   -0.200713
   2 C :   -0.012552
   3 C :   -0.057370
   4 C :    0.226411
   5 O :   -0.242084
   6 O :   -0.205965
   7 N :   -0.249132
   8 H :    0.052447
   9 H :    0.037133
  10 H :    0.051874
  11 H :    0.047501
  12 H :    0.032471
  13 H :    0.037971
  14 H :    0.059884
  15 H :    0.045115
  16 H :    0.192705
  17 H :    0.131399
  18 H :    0.128000
Sum of atomic charges:    0.0000000

--------------------------------
MULLIKEN REDUCED ORBITAL CHARGES
--------------------------------
  0 C s       :     3.060014  s :     3.060014
      pz      :     1.013839  p :     2.988302
      px      :     0.949781
      py      :     1.024682
      dz2     :     0.005013  d :     0.026777
      dxz     :     0.006287
      dyz     :     0.004149
      dx2y2   :     0.006470
      dxy     :     0.004858
  1 C s       :     3.173595  s :     3.173595
      pz      :     1.023386  p :     2.984551
      px      :     0.985451
      py      :     0.975714
      dz2     :     0.008312  d :     0.042567
      dxz     :     0.007750
      dyz     :     0.009564
      dx2y2   :     0.010089
      dxy     :     0.006851
  2 C s       :     3.029269  s :     3.029269
      pz      :     0.940011  p :     2.956726
      px      :     1.033806
      py      :     0.982909
      dz2     :     0.006566  d :     0.026557
      dxz     :     0.003927
      dyz     :     0.006603
      dx2y2   :     0.006992
      dxy     :     0.002469
  3 C s       :     3.088443  s :     3.088443
      pz      :     0.983299  p :     2.913110
      px      :     0.881445
      py      :     1.048366
      dz2     :     0.009194  d :     0.055817
      dxz     :     0.014923
      dyz     :     0.008497
      dx2y2   :     0.013209
      dxy     :     0.009994
  4 C s       :     3.064735  s :     3.064735
      pz      :     0.980868  p :     2.577299
      px      :     0.799681
      py      :     0.796750
      dz2     :     0.036286  d :     0.131556
      dxz     :     0.030476
      dyz     :     0.014523
      dx2y2   :     0.025309
      dxy     :     0.024962
  5 O s       :     3.762558  s :     3.762558
      pz      :     1.488695  p :     4.461517
      px      :     1.556842
      py      :     1.415980
      dz2     :     0.004082  d :     0.018009
      dxz     :     0.006178
      dyz     :     0.003282
      dx2y2   :     0.002002
      dxy     :     0.002466
  6 O s       :     3.675236  s :     3.675236
      pz      :     1.547754  p :     4.518701
      px      :     1.213878
      py      :     1.757068
      dz2     :     0.002352  d :     0.012028
      dxz     :     0.004505
      dyz     :     0.001097
      dx2y2   :     0.002160
      dxy     :     0.001914
  7 N s       :     3.444753  s :     3.444753
      pz      :     1.602224  p :     3.787082
      px      :     1.086280
      py      :     1.098578
      dz2     :     0.002557  d :     0.017297
      dxz     :     0.002957
      dyz     :     0.003876
      dx2y2   :     0.005168
      dxy     :     0.002740
  8 H s       :     0.924415  s :     0.924415
      pz      :     0.005939  p :     0.023138
      px      :     0.004511
      py      :     0.012688
  9 H s       :     0.939834  s :     0.939834
      pz      :     0.008664  p :     0.023032
      px      :     0.005487
      py      :     0.008881
 10 H s       :     0.924152  s :     0.924152
      pz      :     0.013089  p :     0.023975
      px      :     0.005469
      py      :     0.005417
 11 H s       :     0.931838  s :     0.931838
      pz      :     0.007712  p :     0.020660
      px      :     0.004770
      py      :     0.008179
 12 H s       :     0.944482  s :     0.944482
      pz      :     0.008648  p :     0.023047
      px      :     0.005708
      py      :     0.008692
 13 H s       :     0.939039  s :     0.939039
      pz      :     0.004708  p :     0.022991
      px      :     0.005656
      py      :     0.012627
 14 H s       :     0.916383  s :     0.916383
      pz      :     0.003932  p :     0.023733
      px      :     0.014812
      py      :     0.004989
 15 H s       :     0.934814  s :     0.934814
      pz      :     0.008679  p :     0.020072
      px      :     0.003135
      py      :     0.008258
 16 H s       :     0.737083  s :     0.737083
      pz      :     0.026571  p :     0.070211
      px      :     0.026396
      py      :     0.017244
 17 H s       :     0.824657  s :     0.824657
      pz      :     0.018096  p :     0.043945
      px      :     0.009778
      py      :     0.016071
 18 H s       :     0.828237  s :     0.828237
      pz      :     0.012752  p :     0.043764
      px      :     0.009468
      py      :     0.021544


                     *******************************
                     * LOEWDIN POPULATION ANALYSIS *
                     *******************************

----------------------
LOEWDIN ATOMIC CHARGES
----------------------
   0 C :   -0.076781
   1 C :   -0.047645
   2 C :   -0.065406
   3 C :   -0.032799
   4 C :    0.082775
   5 O :   -0.184427
   6 O :   -0.041105
   7 N :   -0.112397
   8 H :    0.037685
   9 H :    0.023964
  10 H :    0.024067
  11 H :    0.033540
  12 H :    0.027676
  13 H :    0.027352
  14 H :    0.033490
  15 H :    0.034036
  16 H :    0.093532
  17 H :    0.070685
  18 H :    0.071757

-------------------------------
LOEWDIN REDUCED ORBITAL CHARGES
-------------------------------
  0 C s       :     2.855809  s :     2.855809
      pz      :     1.062356  p :     3.151656
      px      :     1.019991
      py      :     1.069308
      dz2     :     0.013667  d :     0.069317
      dxz     :     0.014798
      dyz     :     0.011038
      dx2y2   :     0.018430
      dxy     :     0.011384
  1 C s       :     2.857703  s :     2.857703
      pz      :     1.047380  p :     3.089584
      px      :     1.028324
      py      :     1.013880
      dz2     :     0.020305  d :     0.100357
      dxz     :     0.016538
      dyz     :     0.022702
      dx2y2   :     0.025389
      dxy     :     0.015425
  2 C s       :     2.855596  s :     2.855596
      pz      :     1.014401  p :     3.141324
      px      :     1.072348
      py      :     1.054575
      dz2     :     0.017087  d :     0.068486
      dxz     :     0.010130
      dyz     :     0.016795
      dx2y2   :     0.018368
      dxy     :     0.006105
  3 C s       :     2.862818  s :     2.862818
      pz      :     1.037038  p :     3.040787
      px      :     0.949084
      py      :     1.054666
      dz2     :     0.023693  d :     0.129194
      dxz     :     0.032975
      dyz     :     0.021589
      dx2y2   :     0.031229
      dxy     :     0.019707
  4 C s       :     2.873580  s :     2.873580
      pz      :     1.043792  p :     2.757458
      px      :     0.900913
      py      :     0.812753
      dz2     :     0.080695  d :     0.286187
      dxz     :     0.072743
      dyz     :     0.026960
      dx2y2   :     0.056730
      dxy     :     0.049058
  5 O s       :     3.561219  s :     3.561219
      pz      :     1.564633  p :     4.592988
      px      :     1.614780
      py      :     1.413575
      dz2     :     0.006536  d :     0.030221
      dxz     :     0.012762
      dyz     :     0.004142
      dx2y2   :     0.003631
      dxy     :     0.003151
  6 O s       :     3.406827  s :     3.406827
      pz      :     1.600645  p :     4.609340
      px      :     1.291587
      py      :     1.717108
      dz2     :     0.004122  d :     0.024938
      dxz     :     0.010720
      dyz     :     0.000770
      dx2y2   :     0.005597
      dxy     :     0.003728
  7 N s       :     3.144759  s :     3.144759
      pz      :     1.599281  p :     3.928112
      px      :     1.153367
      py      :     1.175465
      dz2     :     0.004657  d :     0.039526
      dxz     :     0.005238
      dyz     :     0.007613
      dx2y2   :     0.013924
      dxy     :     0.008093
  8 H s       :     0.897842  s :     0.897842
      pz      :     0.014819  p :     0.064473
      px      :     0.014175
      py      :     0.035478
  9 H s       :     0.911409  s :     0.911409
      pz      :     0.023284  p :     0.064627
      px      :     0.016963
      py      :     0.024380
 10 H s       :     0.908299  s :     0.908299
      pz      :     0.037064  p :     0.067634
      px      :     0.017343
      py      :     0.013228
 11 H s       :     0.900623  s :     0.900623
      pz      :     0.024046  p :     0.065837
      px      :     0.016005
      py      :     0.025786
 12 H s       :     0.908176  s :     0.908176
      pz      :     0.025470  p :     0.064148
      px      :     0.015138
      py      :     0.023541
 13 H s       :     0.908322  s :     0.908322
      pz      :     0.013893  p :     0.064326
      px      :     0.015167
      py      :     0.035266
 14 H s       :     0.899328  s :     0.899328
      pz      :     0.012112  p :     0.067182
      px      :     0.042978
      py      :     0.012092
 15 H s       :     0.899839  s :     0.899839
      pz      :     0.027214  p :     0.066124
      px      :     0.012773
      py      :     0.026138
 16 H s       :     0.724440  s :     0.724440
      pz      :     0.074364  p :     0.182028
      px      :     0.060915
      py      :     0.046749
 17 H s       :     0.813805  s :     0.813805
      pz      :     0.052770  p :     0.115510
      px      :     0.025405
      py      :     0.037335
 18 H s       :     0.813183  s :     0.813183
      pz      :     0.034835  p :     0.115060
      px      :     0.024528
      py      :     0.055696


                      *****************************
                      * MAYER POPULATION ANALYSIS *
                      *****************************

  NA   - Mulliken gross atomic population
  ZA   - Total nuclear charge
  QA   - Mulliken gross atomic charge
  VA   - Mayer's total valence
  BVA  - Mayer's bonded valence
  FA   - Mayer's free valence

  ATOM       NA         ZA         QA         VA         BVA        FA
  0 C      6.0751     6.0000    -0.0751     3.9318     3.9318     0.0000
  1 C      6.2007     6.0000    -0.2007     4.0818     4.0818    -0.0000
  2 C      6.0126     6.0000    -0.0126     3.9169     3.9169    -0.0000
  3 C      6.0574     6.0000    -0.0574     3.8765     3.8765    -0.0000
  4 C      5.7736     6.0000     0.2264     4.2524     4.2524     0.0000
  5 O      8.2421     8.0000    -0.2421     2.2437     2.2437     0.0000
  6 O      8.2060     8.0000    -0.2060     2.2072     2.2072     0.0000
  7 N      7.2491     7.0000    -0.2491     3.0907     3.0907    -0.0000
  8 H      0.9476     1.0000     0.0524     0.9896     0.9896     0.0000
  9 H      0.9629     1.0000     0.0371     0.9901     0.9901     0.0000
 10 H      0.9481     1.0000     0.0519     1.0008     1.0008     0.0000
 11 H      0.9525     1.0000     0.0475     0.9696     0.9696     0.0000
 12 H      0.9675     1.0000     0.0325     0.9923     0.9923    -0.0000
 13 H      0.9620     1.0000     0.0380     0.9835     0.9835    -0.0000
 14 H      0.9401     1.0000     0.0599     1.0162     1.0162    -0.0000
 15 H      0.9549     1.0000     0.0451     0.9843     0.9843    -0.0000
 16 H      0.8073     1.0000     0.1927     1.0166     1.0166     0.0000
 17 H      0.8686     1.0000     0.1314     1.0013     1.0013    -0.0000
 18 H      0.8720     1.0000     0.1280     0.9955     0.9955    -0.0000

  Mayer bond orders larger than 0.1
B(  0-C ,  1-C ) :   1.0485 B(  0-C ,  8-H ) :   0.9622 B(  0-C ,  9-H ) :   0.9655 
B(  0-C , 10-H ) :   0.9589 B(  1-C ,  2-C ) :   1.0634 B(  1-C ,  3-C ) :   0.9989 
B(  1-C , 11-H ) :   0.9240 B(  2-C , 12-H ) :   0.9630 B(  2-C , 13-H ) :   0.9671 
B(  2-C , 14-H ) :   0.9594 B(  3-C ,  4-C ) :   0.8992 B(  3-C ,  7-N ) :   1.1108 
B(  3-C , 15-H ) :   0.9039 B(  4-C ,  5-O ) :   2.1152 B(  4-C ,  6-O ) :   1.1659 
B(  6-O , 16-H ) :   0.9367 B(  7-N , 17-H ) :   0.9548 B(  7-N , 18-H ) :   0.9575 


-------
TIMINGS
-------

Total SCF time: 0 days 0 hours 0 min 54 sec 

Total time                  ....      54.226 sec
Sum of individual times     ....      54.137 sec  ( 99.8%)

Fock matrix formation       ....      52.633 sec  ( 97.1%)
  XC integration            ....       4.419 sec  (  8.4% of F)
    Basis function eval.    ....       1.290 sec  ( 29.2% of XC)
    Density eval.           ....       1.031 sec  ( 23.3% of XC)
    XC-Functional eval.     ....       0.205 sec  (  4.6% of XC)
    XC-Potential eval.      ....       1.624 sec  ( 36.8% of XC)
Diagonalization             ....       0.019 sec  (  0.0%)
Density matrix formation    ....       0.002 sec  (  0.0%)
Population analysis         ....       0.021 sec  (  0.0%)
Initial guess               ....       0.339 sec  (  0.6%)
Orbital Transformation      ....       0.000 sec  (  0.0%)
Orbital Orthonormalization  ....       0.000 sec  (  0.0%)
DIIS solution               ....       0.004 sec  (  0.0%)
SOSCF solution              ....       0.016 sec  (  0.0%)
Grid generation             ....       1.103 sec  (  2.0%)

-------------------------   --------------------
FINAL SINGLE POINT ENERGY      -401.607586564593
-------------------------   --------------------

------------------------------------------------------------------------------
                         ORCA SCF GRADIENT CALCULATION
------------------------------------------------------------------------------

Gradient of the Kohn-Sham DFT energy:
Kohn-Sham wavefunction type      ... RKS
Hartree-Fock exchange scaling    ...    0.250
Number of operators              ...    1
Number of atoms                  ...   19
Basis set dimensions             ...  167
Integral neglect threshold       ... 2.5e-011
Integral primitive cutoff        ... 2.5e-012

Nuclear repulsion gradient       ... done
One Electron Gradient            
  ECP gradient                   ... done
Pre-screening matrix             ... done
Starting the two electron gradient:
Two electron gradient done
Exchange-correlation gradient    ... done

------------------
CARTESIAN GRADIENT
------------------

   1   C   :   -0.002225953    0.002078159   -0.006326342
   2   C   :    0.005404657   -0.000936819    0.011505150
   3   C   :   -0.006962148    0.003052974   -0.003078109
   4   C   :   -0.016430646    0.009839798    0.001220904
   5   C   :   -0.017516191   -0.012594919   -0.026768569
   6   O   :    0.028973615    0.007067442    0.023337356
   7   O   :   -0.001362023   -0.001935930   -0.010866675
   8   N   :    0.001158084   -0.005627467   -0.002910641
   9   H   :   -0.001684881   -0.007685821   -0.000139469
  10   H   :   -0.000545763    0.004817429   -0.003647227
  11   H   :    0.001122825   -0.001441898    0.004744115
  12   H   :    0.000263782   -0.006407622    0.000669556
  13   H   :   -0.002498064    0.004405647   -0.003509983
  14   H   :    0.000252832   -0.006879162   -0.001245045
  15   H   :    0.007808654   -0.003357447    0.000812463
  16   H   :    0.001263229    0.004546897   -0.000932374
  17   H   :   -0.013933049    0.006542140    0.008024708
  18   H   :    0.010070691   -0.020025804    0.010156955
  19   H   :    0.006840350    0.024542401   -0.001046774

Difference to translation invariance:
           :    0.0000000000    0.0000000000    0.0000000000

Norm of the cartesian gradient     ...    0.0730396700
RMS gradient                       ...    0.0096743406
MAX gradient                       ...    0.0289736151

-------
TIMINGS
-------

Total SCF gradient time            ...       18.451 sec

One electron gradient       ....       0.118 sec  (  0.6%)
Prescreening matrices       ....       0.079 sec  (  0.4%)
Two electron gradient       ....      12.999 sec  ( 70.5%)
XC gradient                 ....       5.170 sec  ( 28.0%)
------------------------------------------------------------------------------
                         ORCA GEOMETRY RELAXATION STEP
------------------------------------------------------------------------------

Reading the OPT-File                    .... done
Getting information on internals        .... done
Copying old internal coords+grads       .... done
Making the new internal coordinates     .... (new redundants).... done
Validating the new internal coordinates .... (new redundants).... done
Calculating the B-matrix                .... done
Calculating the G,G- and P matrices     .... done
Transforming gradient to internals      .... done
Projecting the internal gradient        .... done
Number of atoms                         ....  19
Number of internal coordinates          ....  90
Current Energy                          ....  -401.607586565 Eh
Current gradient norm                   ....     0.073039670 Eh/bohr
Maximum allowed component of the step   ....  0.300
Current trust radius                    ....  0.300
Evaluating the initial hessian          ....  (Almloef) done
Projecting the Hessian                  .... done
Forming the augmented Hessian           .... done
Diagonalizing the augmented Hessian     .... done
Last element of RFO vector              ....  0.965479350
Lowest eigenvalues of augmented Hessian:
 -0.013336293  0.008950848  0.010435497  0.010632702  0.010779486
Length of the computed step             ....  0.269793036
The final length of the internal step   ....  0.269793036
Converting the step to cartesian space:
 Initial RMS(Int)=    0.0284386830
Transforming coordinates:
 Iter   0:  RMS(Cart)=    0.0678072273 RMS(Int)=    0.9358924559
 Iter   1:  RMS(Cart)=    0.0024160391 RMS(Int)=    0.0018660244
 Iter   2:  RMS(Cart)=    0.0002953934 RMS(Int)=    0.0001562446
 Iter   3:  RMS(Cart)=    0.0000337241 RMS(Int)=    0.0000252528
 Iter   4:  RMS(Cart)=    0.0000045202 RMS(Int)=    0.0000027196
 Iter   5:  RMS(Cart)=    0.0000005459 RMS(Int)=    0.0000003863
 Iter   6:  RMS(Cart)=    0.0000000732 RMS(Int)=    0.0000000489
done
Storing new coordinates                 .... done

                                .--------------------.
          ----------------------|Geometry convergence|-------------------------
          Item                value                   Tolerance       Converged
          ---------------------------------------------------------------------
          RMS gradient        0.0076788004            0.0001000000      NO
          MAX gradient        0.0371600227            0.0003000000      NO
          RMS step            0.0284386830            0.0020000000      NO
          MAX step            0.0895729652            0.0040000000      NO
          ........................................................
          Max(Bonds)      0.0332      Max(Angles)    4.57
          Max(Dihed)        5.13      Max(Improp)    0.00
          ---------------------------------------------------------------------

The optimization has not yet converged - more geometry cycles are needed


    ---------------------------------------------------------------------------
                         Redundant Internal Coordinates
                            (Angstroem and degrees)

        Definition                    Value    dE/dq     Step     New-Value
    ----------------------------------------------------------------------------
     1. B(C   1,C   0)                1.5368  0.003592 -0.0050    1.5318   
     2. B(C   2,C   1)                1.5397  0.006525 -0.0092    1.5305   
     3. B(C   3,C   1)                1.5624  0.010933 -0.0168    1.5456   
     4. B(C   4,C   3)                1.5263 -0.004714  0.0064    1.5326   
     5. B(O   5,C   4)                1.2219  0.037160 -0.0187    1.2032   
     6. B(O   6,C   4)                1.3506  0.015267 -0.0122    1.3383   
     7. B(N   7,C   3)                1.4678  0.017858 -0.0218    1.4460   
     8. B(H   8,C   0)                1.1115  0.007490 -0.0115    1.1000   
     9. B(H   9,C   0)                1.1119  0.005733 -0.0088    1.1031   
    10. B(H  10,C   0)                1.1064  0.003781 -0.0057    1.1007   
    11. B(H  11,C   1)                1.1128  0.004874 -0.0075    1.1053   
    12. B(H  12,C   2)                1.1112  0.006091 -0.0093    1.1019   
    13. B(H  13,C   2)                1.1113  0.006562 -0.0100    1.1013   
    14. B(H  14,C   2)                1.1101  0.007807 -0.0119    1.0982   
    15. B(H  15,C   3)                1.1126  0.003292 -0.0051    1.1075   
    16. B(H  16,O   6)                0.9662  0.003795 -0.0039    0.9624   
    17. B(H  17,N   7)                1.0456  0.023513 -0.0317    1.0140   
    18. B(H  18,N   7)                1.0457  0.024682 -0.0332    1.0125   
    19. A(H   8,C   0,H  10)          106.05  0.000177    0.33    106.38   
    20. A(C   1,C   0,H  10)          111.19 -0.003772    0.81    112.00   
    21. A(H   8,C   0,H   9)          108.50  0.001861   -0.66    107.84   
    22. A(H   9,C   0,H  10)          110.12  0.002984   -0.58    109.54   
    23. A(C   1,C   0,H   8)          110.11  0.000454   -0.05    110.06   
    24. A(C   1,C   0,H   9)          110.73 -0.001479    0.12    110.85   
    25. A(C   0,C   1,C   3)          113.67  0.001050   -0.18    113.49   
    26. A(C   2,C   1,C   3)          110.38  0.001799   -0.27    110.11   
    27. A(C   3,C   1,H  11)          108.82  0.001242   -1.20    107.62   
    28. A(C   2,C   1,H  11)          107.73 -0.000341    0.23    107.96   
    29. A(C   0,C   1,H  11)          107.62  0.000154    0.03    107.66   
    30. A(C   0,C   1,C   2)          108.42 -0.004008    1.42    109.83   
    31. A(H  13,C   2,H  14)          107.17 -0.001945    0.79    107.96   
    32. A(C   1,C   2,H  14)          111.07 -0.000233    0.12    111.19   
    33. A(H  12,C   2,H  13)          108.71  0.000811   -0.33    108.38   
    34. A(C   1,C   2,H  13)          110.32  0.000655   -0.00    110.32   
    35. A(C   1,C   2,H  12)          110.69 -0.000764   -0.06    110.63   
    36. A(H  12,C   2,H  14)          108.78  0.001482   -0.51    108.27   
    37. A(N   7,C   3,H  15)          107.31  0.000814   -0.04    107.28   
    38. A(C   4,C   3,H  15)          107.37 -0.000509   -0.19    107.18   
    39. A(C   1,C   3,H  15)          109.13  0.001272   -1.09    108.04   
    40. A(C   4,C   3,N   7)          110.02 -0.004384    1.49    111.51   
    41. A(C   1,C   3,N   7)          109.07 -0.001069    0.51    109.59   
    42. A(C   1,C   3,C   4)          113.72  0.003808   -0.69    113.03   
    43. A(O   5,C   4,O   6)          118.28 -0.001797    0.37    118.65   
    44. A(C   3,C   4,O   6)          121.35  0.016113   -2.06    119.29   
    45. A(C   3,C   4,O   5)          120.26 -0.014476    2.02    122.29   
    46. A(C   4,O   6,H  16)          122.57  0.030686   -4.57    118.00   
    47. A(H  17,N   7,H  18)          109.50  0.003438   -2.21    107.29   
    48. A(C   3,N   7,H  18)          110.27 -0.001099   -0.56    109.71   
    49. A(C   3,N   7,H  17)          110.82  0.004271   -1.45    109.37   
    50. D(C   3,C   1,C   0,H  10)    -65.01 -0.001432    1.12    -63.89   
    51. D(H  11,C   1,C   0,H   9)    178.35  0.001039   -0.58    177.77   
    52. D(H  11,C   1,C   0,H  10)     55.58  0.000899   -0.49     55.09   
    53. D(C   3,C   1,C   0,H   8)    177.75  0.000373    0.25    177.99   
    54. D(C   2,C   1,C   0,H   9)    -65.39 -0.001359    0.45    -64.94   
    55. D(C   2,C   1,C   0,H   8)     54.60  0.000307   -0.33     54.27   
    56. D(H  11,C   1,C   0,H   8)    -61.67  0.002704   -1.36    -63.02   
    57. D(C   3,C   1,C   0,H   9)     57.76 -0.001292    1.03     58.79   
    58. D(C   2,C   1,C   0,H  10)    171.85 -0.001498    0.54    172.38   
    59. D(H  13,C   2,C   1,C   3)    178.08  0.000044   -0.71    177.36   
    60. D(H  12,C   2,C   1,H  11)    179.75 -0.001328    0.29    180.04   
    61. D(H  13,C   2,C   1,C   0)    -56.81 -0.000190   -0.15    -56.96   
    62. D(H  12,C   2,C   1,C   3)    -61.56  0.000991   -1.17    -62.73   
    63. D(H  13,C   2,C   1,H  11)     59.39 -0.002274    0.75     60.14   
    64. D(H  14,C   2,C   1,H  11)    -59.30 -0.000126   -0.31    -59.61   
    65. D(H  14,C   2,C   1,C   3)     59.39  0.002192   -1.77     57.61   
    66. D(H  14,C   2,C   1,C   0)   -175.50  0.001958   -1.21   -176.71   
    67. D(H  12,C   2,C   1,C   0)     63.55  0.000756   -0.60     62.95   
    68. D(H  15,C   3,C   1,C   2)     60.50 -0.001962    0.84     61.34   
    69. D(H  15,C   3,C   1,C   0)    -61.57  0.001166   -0.68    -62.24   
    70. D(N   7,C   3,C   1,H  11)     61.57 -0.001669    0.61     62.18   
    71. D(N   7,C   3,C   1,C   2)    -56.45 -0.003052    1.21    -55.25   
    72. D(N   7,C   3,C   1,C   0)   -178.52  0.000076   -0.31   -178.83   
    73. D(C   4,C   3,C   1,H  11)    -61.63  0.002156   -1.23    -62.86   
    74. D(C   4,C   3,C   1,C   2)   -179.66  0.000772   -0.63   -180.28   
    75. D(H  15,C   3,C   1,H  11)    178.52 -0.000578    0.24    178.77   
    76. D(C   4,C   3,C   1,C   0)     58.28  0.003900   -2.14     56.13   
    77. D(O   6,C   4,C   3,C   1)    -70.47 -0.002750    2.66    -67.80   
    78. D(O   5,C   4,C   3,H  15)   -125.72  0.003765   -5.13   -130.85   
    79. D(O   5,C   4,C   3,N   7)     -9.24  0.002119   -4.49    -13.73   
    80. D(O   5,C   4,C   3,C   1)    113.44  0.000132   -3.19    110.25   
    81. D(O   6,C   4,C   3,H  15)     50.37  0.000883    0.72     51.09   
    82. D(O   6,C   4,C   3,N   7)    166.85 -0.000763    1.36    168.21   
    83. D(H  16,O   6,C   4,O   5)    171.83 -0.003295    5.01    176.85   
    84. D(H  16,O   6,C   4,C   3)     -4.34  0.000033   -0.79     -5.13   
    85. D(H  18,N   7,C   3,H  15)     57.08 -0.004228    2.03     59.11   
    86. D(H  18,N   7,C   3,C   4)    -59.43 -0.001757    1.49    -57.94   
    87. D(H  18,N   7,C   3,C   1)    175.18 -0.002838    0.99    176.18   
    88. D(H  17,N   7,C   3,H  15)    178.49  0.002206   -2.09    176.40   
    89. D(H  17,N   7,C   3,C   4)     61.98  0.004677   -2.63     59.35   
    90. D(H  17,N   7,C   3,C   1)    -63.41  0.003595   -3.13    -66.53   
    ----------------------------------------------------------------------------

         *************************************************************
         *                GEOMETRY OPTIMIZATION CYCLE   2            *
         *************************************************************
---------------------------------
CARTESIAN COORDINATES (ANGSTROEM)
---------------------------------
  C      0.903063   -0.046323    0.022250
  C      2.430947    0.062247    0.010976
  C      2.966952   -0.299319   -1.376238
  C      2.952776    1.453563    0.436313
  C      2.449013    1.885781    1.817733
  O      3.178088    1.959188    2.772097
  O      1.148569    2.154850    1.983755
  N      4.397148    1.470894    0.369304
  H      0.593237   -1.043884   -0.322579
  H      0.451503    0.699958   -0.653012
  H      0.488535    0.074722    1.034713
  H      2.824693   -0.677412    0.731779
  H      2.600436    0.413786   -2.132081
  H      2.635658   -1.309763   -1.662765
  H      4.064912   -0.285304   -1.393667
  H      2.580564    2.197612   -0.294779
  H      0.581188    2.139457    1.206572
  H      4.773414    0.841815    1.069877
  H      4.737443    2.399451    0.586253

----------------------------
CARTESIAN COORDINATES (A.U.)
----------------------------
  NO LB      ZA    FRAG     MASS         X           Y           Z
   0 C     6.0000    0    12.011    1.706542   -0.087538    0.042046
   1 C     6.0000    0    12.011    4.593824    0.117630    0.020742
   2 C     6.0000    0    12.011    5.606727   -0.565630   -2.600713
   3 C     6.0000    0    12.011    5.579938    2.746836    0.824511
   4 C     6.0000    0    12.011    4.627965    3.563609    3.435018
   5 O     8.0000    0    15.999    6.005715    3.702328    5.238505
   6 O     8.0000    0    15.999    2.170480    4.072077    3.748753
   7 N     7.0000    0    14.007    8.309406    2.779587    0.697883
   8 H     1.0000    0     1.008    1.121056   -1.972655   -0.609586
   9 H     1.0000    0     1.008    0.853216    1.322729   -1.234015
  10 H     1.0000    0     1.008    0.923197    0.141204    1.955324
  11 H     1.0000    0     1.008    5.337897   -1.280123    1.382861
  12 H     1.0000    0     1.008    4.914113    0.781943   -4.029049
  13 H     1.0000    0     1.008    4.980672   -2.475093   -3.142170
  14 H     1.0000    0     1.008    7.681571   -0.539146   -2.633649
  15 H     1.0000    0     1.008    4.876559    4.152885   -0.557051
  16 H     1.0000    0     1.008    1.098286    4.042987    2.280090
  17 H     1.0000    0     1.008    9.020446    1.590800    2.021775
  18 H     1.0000    0     1.008    8.952469    4.534306    1.107858

--------------------------------
INTERNAL COORDINATES (ANGSTROEM)
--------------------------------
 C      0   0   0     0.000000000000     0.00000000     0.00000000
 C      1   0   0     1.531778321291     0.00000000     0.00000000
 C      2   1   0     1.530488551942   109.83143443     0.00000000
 C      2   1   3     1.545631459823   113.48655040   123.72772556
 C      4   2   1     1.532616003130   113.01194286    56.14343626
 O      5   4   2     1.203224360430   122.20582383   110.23860635
 O      5   4   2     1.338326467890   119.20285180   292.20826064
 N      4   2   1     1.446029212314   109.58866849   181.17495311
 H      1   2   3     1.100011895462   110.05429293    54.26707428
 H      1   2   3     1.103096117363   110.84613170   295.06134038
 H      1   2   3     1.100711937670   112.00068726   172.38398237
 H      2   1   3     1.105299663045   107.64378208   242.70668659
 H      3   2   1     1.101885238597   110.63173246    62.94705244
 H      3   2   1     1.101294978351   110.31718869   303.03910625
 H      3   2   1     1.098188232662   111.19329786   183.28963208
 H      4   2   1     1.107540319293   108.03612427   297.75584622
 H      7   5   4     0.962377759238   118.00041087   354.91126599
 H      8   4   2     1.013962330214   109.34203000   293.47412278
 H      8   4   2     1.012465272661   109.68094788   176.15319531

---------------------------
INTERNAL COORDINATES (A.U.)
---------------------------
 C      0   0   0     0.000000000000     0.00000000     0.00000000
 C      1   0   0     2.894641525118     0.00000000     0.00000000
 C      2   1   0     2.892204214272   109.83143443     0.00000000
 C      2   1   3     2.920820163038   113.48655040   123.72772556
 C      4   2   1     2.896224514381   113.01194286    56.14343626
 O      5   4   2     2.273764518875   122.20582383   110.23860635
 O      5   4   2     2.529070502090   119.20285180   292.20826064
 N      4   2   1     2.732599192923   109.58866849   181.17495311
 H      1   2   3     2.078721226479   110.05429293    54.26707428
 H      1   2   3     2.084549561209   110.84613170   295.06134038
 H      1   2   3     2.080044114533   112.00068726   172.38398237
 H      2   1   3     2.088713659070   107.64378208   242.70668659
 H      3   2   1     2.082261331959   110.63173246    62.94705244
 H      3   2   1     2.081145901746   110.31718869   303.03910625
 H      3   2   1     2.075275003226   111.19329786   183.28963208
 H      4   2   1     2.092947885739   108.03612427   297.75584622
 H      7   5   4     1.818630402337   118.00041087   354.91126599
 H      8   4   2     1.916111114218   109.34203000   293.47412278
 H      8   4   2     1.913282085435   109.68094788   176.15319531


Diagonalization of the overlap matrix:
Smallest eigenvalue                        ... 1.279e-003
Time for diagonalization                   ...    0.006 sec
Threshold for overlap eigenvalues          ... 1.000e-008
Number of eigenvalues below threshold      ... 0
Time for construction of square roots      ...    0.003 sec
Total time needed                          ...    0.009 sec

-------------------
DFT GRID GENERATION
-------------------

General Integration Accuracy     IntAcc      ...  4.340
Radial Grid Type                 RadialGrid  ... Gauss-Chebyshev
Angular Grid (max. acc.)         AngularGrid ... Lebedev-110
Angular grid pruning method      GridPruning ... 3 (G Style)
Weight generation scheme         WeightScheme... Becke
Basis function cutoff            BFCut       ...   1.0000e-011
Integration weight cutoff        WCut        ...   1.0000e-014
Grids for H and He will be reduced by one unit

# of grid points (after initial pruning)     ...  22148 (   0.0 sec)
# of grid points (after weights+screening)   ...  20239 (   0.0 sec)
nearest neighbour list constructed           ...    0.0 sec
Grid point re-assignment to atoms done       ...    0.0 sec
Grid point division into batches done        ...    0.0 sec
Reduced shell lists constructed in    0.1 sec

Total number of grid points                  ...    20239
Total number of batches                      ...      327
Average number of points per batch           ...       61
Average number of grid points per atom       ...     1065
Average number of shells per batch           ...    60.19 (74.31%)
Average number of basis functions per batch  ...   121.18 (72.56%)
Average number of large shells per batch     ...    46.90 (77.92%)
Average number of large basis fcns per batch ...    90.93 (75.03%)
Maximum spatial batch extension              ...  20.99, 20.59, 22.00 au
Average spatial batch extension              ...   3.53,  3.55,  3.58 au

Time for grid setup =    0.186 sec

--------------
SCF ITERATIONS
--------------
ITER       Energy         Delta-E        Max-DP      RMS-DP      [F,P]     Damp
               ***  Starting incremental Fock matrix formation  ***
  0   -401.6060424461   0.000000000000 0.00971162  0.00029520  0.0352308 0.7000
                      *** Initiating the SOSCF procedure ***
                      *** Re-Reading the Fockian *** 
                      *** Removing any level shift *** 
ITER      Energy       Delta-E        Grad      Rot      Max-DP    RMS-DP
  1   -401.60842786  -0.0023854155  0.002217  0.002217  0.027638  0.000880
               *** Restarting incremental Fock matrix formation ***
  2   -401.61465757  -0.0062297039  0.001509  0.004363  0.006839  0.000225
  3   -401.61480342  -0.0001458537  0.001278  0.001926  0.004068  0.000111
  4   -401.61485423  -0.0000508108  0.000645  0.001328  0.001988  0.000052
  5   -401.61486200  -0.0000077727  0.000592  0.000820  0.001097  0.000029
  6   -401.61486377  -0.0000017690  0.000324  0.000296  0.000565  0.000018
  7   -401.61486557  -0.0000017980  0.000061  0.000063  0.000304  0.000007
  8   -401.61486568  -0.0000001098  0.000044  0.000039  0.000098  0.000003
  9   -401.61486575  -0.0000000732  0.000011  0.000010  0.000049  0.000001
 10   -401.61486575  -0.0000000002  0.000012  0.000005  0.000026  0.000001
                  ***Gradient check signals convergence***
              ***Rediagonalizing the Fockian in SOSCF/NRSCF***

               *****************************************************
               *                     SUCCESS                       *
               *           SCF CONVERGED AFTER  11 CYCLES          *
               *****************************************************

Setting up the final grid:

General Integration Accuracy     IntAcc      ...  4.670
Radial Grid Type                 RadialGrid  ... Gauss-Chebyshev
Angular Grid (max. acc.)         AngularGrid ... Lebedev-302
Angular grid pruning method      GridPruning ... 3 (G Style)
Weight generation scheme         WeightScheme... Becke
Basis function cutoff            BFCut       ...   1.0000e-011
Integration weight cutoff        WCut        ...   1.0000e-014
Grids for H and He will be reduced by one unit

# of grid points (after initial pruning)     ...  87030 (   0.0 sec)
# of grid points (after weights+screening)   ...  78209 (   0.2 sec)
nearest neighbour list constructed           ...    0.0 sec
Grid point re-assignment to atoms done       ...    0.0 sec
Grid point division into batches done        ...    0.2 sec
Reduced shell lists constructed in    0.5 sec

Total number of grid points                  ...    78209
Total number of batches                      ...     1231
Average number of points per batch           ...       63
Average number of grid points per atom       ...     4116
Average number of shells per batch           ...    55.25 (68.21%)
Average number of basis functions per batch  ...   109.97 (65.85%)
Average number of large shells per batch     ...    42.24 (76.45%)
Average number of large basis fcns per batch ...    81.02 (73.67%)
Maximum spatial batch extension              ...  16.35, 18.92, 20.91 au
Average spatial batch extension              ...   2.32,  2.32,  2.37 au

Final grid set up in    0.7 sec
Final integration                            ... done (   0.8 sec)
Change in XC energy                          ...    -0.000447604
Integrated number of electrons               ...    64.000098036
Previous integrated no of electrons          ...    63.998586689
Total Energy       :         -401.61531336 Eh          -10928.50827 eV
  Last Energy change         ...  -4.3907e-009  Tolerance :  1.0000e-008
  Last MAX-Density change    ...   6.6825e-006  Tolerance :  1.0000e-007
             **** THE GBW FILE WAS UPDATED (valine.gbw) ****
             **** DENSITY FILE WAS UPDATED (valine.scfp.tmp) ****
             **** ENERGY FILE WAS UPDATED (valine.en.tmp) ****
Total SCF time: 0 days 0 hours 0 min 36 sec 

-------------------------   --------------------
FINAL SINGLE POINT ENERGY      -401.615313361096
-------------------------   --------------------

[...]
     52       0.003532  -0.009586   0.538892   0.022396  -0.005165   0.000750
     53      -0.000280  -0.003885   0.100899   0.032666   0.013216  -0.000562
     54      -0.007573   0.011036   0.453191  -0.003779   0.003623   0.000841
     55       0.000688   0.000108  -0.218486   0.000835  -0.004846  -0.000184
     56       0.001093  -0.004124   0.453447   0.021692  -0.001599   0.000706
                 48         49         50         51         52         53    
      0      -0.007379   0.013562   0.005479  -0.001758   0.005430  -0.000089
      1      -0.002609   0.001102   0.074634  -0.022619  -0.046647  -0.000076
      2       0.001109  -0.000607  -0.042018   0.014170  -0.080515  -0.001764
      3      -0.020208   0.022814  -0.003039   0.004184  -0.000954   0.001436
      4       0.033188  -0.036050   0.004038  -0.007490   0.000211  -0.000668
      5      -0.034356   0.034831  -0.003718   0.007072  -0.001645   0.001096
      6       0.003358  -0.001582   0.006897   0.023603  -0.001068   0.086561
      7      -0.002505   0.007032  -0.026933  -0.081976  -0.001565   0.030234
      8       0.041835   0.034284   0.006175   0.018536   0.000052   0.014023
      9      -0.005488   0.006193  -0.000426   0.000581   0.000173   0.000339
     10       0.009221  -0.011892   0.000331  -0.000432   0.000335  -0.000114
     11      -0.009594   0.011567  -0.000495   0.000892  -0.000066  -0.000235
     12      -0.000470   0.000837  -0.000256   0.000058   0.000406   0.000141
     13       0.000690  -0.000647   0.000227  -0.000047   0.000003  -0.000103
     14      -0.000675   0.000327  -0.000255   0.000234   0.000160   0.000042
     15       0.000239  -0.000297   0.000098  -0.000065  -0.000072  -0.000047
     16      -0.000196   0.000198  -0.000089   0.000046   0.000024   0.000019
     17       0.000469  -0.000401   0.000155  -0.000191  -0.000061  -0.000006
     18       0.000103  -0.000286  -0.000064   0.000048  -0.000355  -0.000039
     19      -0.000076   0.000099  -0.000167   0.000055  -0.000296   0.000001
     20       0.000107   0.000034  -0.000228   0.000057  -0.000272  -0.000008
     21       0.000104  -0.000145   0.000032   0.000032   0.000003  -0.000045
     22      -0.000352   0.000437  -0.000033   0.000157   0.000088   0.000274
     23       0.000129  -0.000541   0.000066   0.000031   0.000063   0.000390
     24       0.024362  -0.037003  -0.172536   0.053615   0.163119  -0.000096
     25       0.092686  -0.134768  -0.578055   0.172701   0.551297   0.002859
     26       0.033861  -0.047025  -0.212372   0.063203   0.178863   0.001611
     27       0.033268  -0.073417   0.259812  -0.085988   0.048551   0.001691
     28      -0.049453   0.104128  -0.370130   0.119011  -0.079039  -0.003436
     29       0.045437  -0.093448   0.338525  -0.107552   0.052604   0.003317
     30       0.029138  -0.051259  -0.141500   0.047537  -0.272953  -0.006631
     31      -0.013440   0.019882   0.063617  -0.019184   0.088153   0.001973
     32      -0.091541   0.144874   0.377308  -0.126215   0.730987   0.017160
     33       0.249424  -0.266013   0.028701  -0.046166   0.007020  -0.007260
     34      -0.400820   0.426949  -0.042415   0.075006  -0.009137   0.008800
     35       0.395379  -0.417409   0.041215  -0.075299   0.011341  -0.010647
     36      -0.256057  -0.192924  -0.087248  -0.267630  -0.001386  -0.077327
     37       0.353293   0.268602   0.114892   0.356815   0.000128   0.124388
     38      -0.390741  -0.299930  -0.131177  -0.415313  -0.000158  -0.132787
     39      -0.075506  -0.089018   0.052909   0.157843   0.003059  -0.077009
     40      -0.352931  -0.388231   0.215582   0.658050   0.019271  -0.373019
     41      -0.081627  -0.091267   0.054637   0.171368   0.005821  -0.090321
     42       0.286578   0.296749  -0.048380  -0.170705   0.009823  -0.884511
     43       0.035260   0.041581  -0.012976  -0.037620   0.001289  -0.116734
     44      -0.010357  -0.009727   0.003678   0.013201  -0.000825   0.049622
     45       0.057131  -0.069533   0.001996  -0.004551   0.000554  -0.000150
     46      -0.110002   0.137272  -0.007590   0.013091  -0.001592   0.001080
     47       0.108966  -0.131683   0.006275  -0.008373   0.001210  -0.000500
     48       0.001904  -0.002095   0.001161  -0.000912   0.001346   0.000021
     49      -0.001071   0.001410  -0.002079   0.000729   0.001431   0.000215
     50      -0.000430  -0.000513   0.002035  -0.000744   0.001912  -0.000112
     51       0.002104  -0.002037   0.000764  -0.000473   0.000331  -0.000024
     52       0.002498  -0.004092   0.000171  -0.000999  -0.000293  -0.000020
     53      -0.001404   0.002203   0.000258  -0.000176  -0.000017   0.000451
     54       0.000488  -0.000549   0.000206  -0.000507  -0.000242   0.000062
     55       0.000566  -0.001462   0.000349  -0.000112  -0.000476   0.000965
     56       0.001557  -0.000780   0.000186   0.000182  -0.000067   0.000171
                  54         55         56    
      0       0.000056  -0.000054   0.000153
      1      -0.000104   0.000053  -0.000271
      2       0.000014   0.000091   0.000448
      3      -0.000011   0.000019   0.000053
      4       0.000174  -0.000241   0.000171
      5       0.000093  -0.000025  -0.000040
      6      -0.000073   0.000013   0.000010
      7       0.000038  -0.000002  -0.000068
      8       0.000005  -0.000107   0.000022
      9       0.000833  -0.001571   0.000502
     10       0.000169   0.001447  -0.000476
     11      -0.002185  -0.000324   0.000448
     12       0.000381   0.000105  -0.000410
     13       0.000019  -0.000255   0.000255
     14      -0.000056   0.000047  -0.002937
     15       0.000146   0.000013   0.000646
     16       0.000030   0.000061  -0.000326
     17      -0.000061  -0.000116   0.001040
     18      -0.000013  -0.000040  -0.023595
     19      -0.000054   0.000064   0.010224
     20       0.000045   0.000134  -0.056618
     21      -0.034531   0.006486  -0.000054
     22      -0.005868   0.074914   0.000145
     23      -0.047317  -0.025506  -0.000378
     24      -0.000119   0.000233  -0.000476
     25       0.000244  -0.000301  -0.000192
     26       0.000177  -0.000152  -0.001151
     27      -0.000042   0.000378  -0.002006
     28       0.000418  -0.000012   0.001736
     29      -0.000291   0.000115  -0.003078
     30       0.000057   0.000275   0.000843
     31      -0.000028  -0.000041   0.000438
     32      -0.000032  -0.000467  -0.001482
     33      -0.000534  -0.000535  -0.000290
     34      -0.000192  -0.001424  -0.000046
     35      -0.000535   0.000247   0.000253
     36       0.000264   0.000287  -0.000126
     37      -0.000262  -0.000200   0.000225
     38       0.000290   0.000411  -0.000393
     39       0.000263   0.000003  -0.000023
     40       0.000422   0.000056  -0.000124
     41       0.000118   0.000102  -0.000258
     42       0.000256  -0.000715  -0.000034
     43      -0.000276  -0.000245   0.000132
     44      -0.000426  -0.000511   0.000074
     45       0.003549   0.004410   0.000077
     46      -0.006246  -0.008339   0.002434
     47       0.005540   0.005297  -0.001844
     48      -0.001485  -0.001262   0.363489
     49       0.000754   0.000585  -0.156413
     50      -0.002010  -0.002586   0.916235
     51       0.293492   0.189056   0.000513
     52      -0.431042  -0.250053  -0.001673
     53       0.656473   0.433114   0.003119
     54       0.167879  -0.264100  -0.000639
     55       0.514584  -0.794938  -0.000991
     56       0.023819  -0.077640   0.000428


-----------
IR SPECTRUM
-----------

 Mode    freq (cm**-1)   T**2         TX         TY         TZ
-------------------------------------------------------------------
   6:        68.42    4.313842  ( -1.179492  -1.709337   0.028410)
   7:        73.03    2.867726  (  0.204501  -1.631927  -0.403386)
   8:       189.58    2.359081  (  0.944860   1.210522   0.030944)
   9:       233.36    2.364923  ( -0.892428   1.211187   0.318624)
  10:       249.65   27.983465  (  1.136786  -4.877513   1.703247)
  11:       262.98   18.729696  (  0.980471  -4.211885  -0.168505)
  12:       290.88   11.099998  (  2.975698  -0.557324  -1.390902)
  13:       314.75   11.024323  (  2.341393   2.354073  -0.023338)
  14:       372.07   14.445568  (  2.523147   2.508733  -1.336248)
  15:       380.26    2.733772  ( -1.461919  -0.561793   0.530051)
  16:       429.18    1.238364  (  0.257743  -1.079398  -0.082666)
  17:       525.96   95.641257  (  3.312892   9.176216   0.680482)
  18:       544.97   14.505542  (  1.548079   3.437465   0.541136)
  19:       695.83   15.884594  (  3.284637  -0.821659   2.102530)
  20:       735.14    1.441957  (  1.009550   0.439463   0.479205)
  21:       852.74    0.496408  (  0.173292  -0.363823  -0.577937)
  22:       880.80   66.966734  (  5.812231  -0.176941  -5.757898)
  23:       926.72   18.578138  (  4.193681  -0.020697  -0.995362)
  24:       929.60   25.765050  ( -4.696918   0.659873   1.807921)
  25:       960.19   13.598118  (  3.114704  -0.694079  -1.847969)
  26:      1001.53   63.720547  (  5.901173  -3.129979  -4.370347)
  27:      1068.00    4.149084  ( -1.622297  -1.180750  -0.350809)
  28:      1146.45    4.867558  (  1.105419   1.635380   0.985464)
  29:      1164.21    6.703648  (  0.377124  -1.040542  -2.340662)
  30:      1176.70    2.452144  (  1.115307   1.078322  -0.213204)
  31:      1194.54    5.083205  ( -1.010755   1.967951   0.434452)
  32:      1242.14    5.604961  ( -0.383539   1.969474   1.256595)
  33:      1267.20   97.127604  (  8.877170  -4.173031  -0.953557)
  34:      1335.05   73.450910  (  6.970585  -4.680173  -1.719837)
  35:      1354.97   49.019878  (  6.320712  -2.980190  -0.432365)
  36:      1360.59  149.540296  ( -9.707644   6.581144   3.462730)
  37:      1382.12   13.871469  ( -1.848293   1.303810   2.958946)
  38:      1402.11   16.856820  ( -3.997722   0.458440  -0.815394)
  39:      1417.25   26.138622  ( -3.412332   2.870015   2.501525)
  40:      1456.82    3.853751  ( -1.477456   1.115966   0.652298)
  41:      1463.02    1.086794  ( -0.047214   0.310124   0.994177)
  42:      1479.27    9.331095  (  0.820600  -2.356008   1.762651)
  43:      1487.20   16.015189  (  0.146972  -3.999114   0.025982)
  44:      1645.65   30.327312  (  3.610492   1.398977   3.915932)
  45:      1915.32  245.208616  (  8.067827  -1.734052  13.308338)
  46:      3020.57   16.895642  (  2.305933  -2.910845   1.762185)
  47:      3039.08   11.013477  (  3.262185  -0.608531  -0.036317)
  48:      3047.73   10.325147  ( -1.625616   2.301894   1.543957)
  49:      3052.99   40.528122  (  3.277523  -1.298156   5.301014)
  50:      3131.62    8.093777  (  0.405723   2.396141  -1.479079)
  51:      3137.98   33.837737  (  0.886732  -5.563392   1.449178)
  52:      3158.32   11.223002  ( -0.155655  -1.677562  -2.895610)
  53:      3180.26    3.534883  (  1.837350   0.362961   0.165188)
  54:      3524.47    8.425790  (  1.074832   0.009195   2.696375)
  55:      3609.65    8.358292  (  0.113638  -2.258500   1.801265)
  56:      3862.84   51.391507  (  4.147869  -1.776931   5.570387)

The first frequency considered to be a vibration is 6
The total number of vibrations considered is 51


--------------------------
THERMOCHEMISTRY AT 298.15K
--------------------------

Temperature         ... 298.15 K
Pressure            ... 1.00 atm
Total Mass          ... 117.15 AMU

Throughout the following assumptions are being made:
  (1) The electronic state is orbitally nondegenerate
  (2) There are no thermally accessible electronically excited states
  (3) Hindered rotations indicated by low frequency modes are not
      treated as such but are treated as vibrations and this may
      cause some error
  (4) All equations used are the standard statistical mechanics
      equations for an ideal gas
  (5) All vibrations are strictly harmonic

freq.      68.42  E(vib)   ...       0.50 
freq.      73.03  E(vib)   ...       0.49 
freq.     189.58  E(vib)   ...       0.36 
freq.     233.36  E(vib)   ...       0.32 
freq.     249.65  E(vib)   ...       0.31 
freq.     262.98  E(vib)   ...       0.29 
freq.     290.88  E(vib)   ...       0.27 
freq.     314.75  E(vib)   ...       0.25 
freq.     372.07  E(vib)   ...       0.21 
freq.     380.26  E(vib)   ...       0.21 
freq.     429.18  E(vib)   ...       0.18 
freq.     525.96  E(vib)   ...       0.13 
freq.     544.97  E(vib)   ...       0.12 
freq.     695.83  E(vib)   ...       0.07 
freq.     735.14  E(vib)   ...       0.06 
freq.     852.74  E(vib)   ...       0.04 
freq.     880.80  E(vib)   ...       0.04 
freq.     926.72  E(vib)   ...       0.03 
freq.     929.60  E(vib)   ...       0.03 
freq.     960.19  E(vib)   ...       0.03 
freq.    1001.53  E(vib)   ...       0.02 
freq.    1068.00  E(vib)   ...       0.02 
freq.    1146.45  E(vib)   ...       0.01 
freq.    1164.21  E(vib)   ...       0.01 
freq.    1176.70  E(vib)   ...       0.01 
freq.    1194.54  E(vib)   ...       0.01 
freq.    1242.14  E(vib)   ...       0.01 
freq.    1267.20  E(vib)   ...       0.01 
freq.    1335.05  E(vib)   ...       0.01 
freq.    1354.97  E(vib)   ...       0.01 
freq.    1360.59  E(vib)   ...       0.01 
freq.    1382.12  E(vib)   ...       0.01 
freq.    1402.11  E(vib)   ...       0.00 
freq.    1417.25  E(vib)   ...       0.00 
freq.    1456.82  E(vib)   ...       0.00 
freq.    1463.02  E(vib)   ...       0.00 
freq.    1479.27  E(vib)   ...       0.00 
freq.    1487.20  E(vib)   ...       0.00 
freq.    1645.65  E(vib)   ...       0.00 
freq.    1915.32  E(vib)   ...       0.00 
freq.    3020.57  E(vib)   ...       0.00 
freq.    3039.08  E(vib)   ...       0.00 
freq.    3047.73  E(vib)   ...       0.00 
freq.    3052.99  E(vib)   ...       0.00 
freq.    3131.62  E(vib)   ...       0.00 
freq.    3137.98  E(vib)   ...       0.00 
freq.    3158.32  E(vib)   ...       0.00 
freq.    3180.26  E(vib)   ...       0.00 
freq.    3524.47  E(vib)   ...       0.00 
freq.    3609.65  E(vib)   ...       0.00 
freq.    3862.84  E(vib)   ...       0.00 

------------
INNER ENERGY
------------

The inner energy is: U= E(el) + E(ZPE) + E(vib) + E(rot) + E(trans)
    E(el)   - is the total energy from the electronic structure calculation
              = E(kin-el) + E(nuc-el) + E(el-el) + E(nuc-nuc)
    E(ZPE)  - the the zero temperature vibrational energy from the frequency calculation
    E(vib)  - the the finite temperature correction to E(ZPE) due to population
              of excited vibrational states
    E(rot)  - is the rotational thermal energy
    E(trans)- is the translational thermal energy

Summary of contributions to the inner energy U:
Electronic energy                ...   -401.61919433 Eh
Zero point energy                ...      0.16549012 Eh     103.85 kcal/mol
Thermal vibrational correction   ...      0.00652765 Eh       4.10 kcal/mol
Thermal rotational correction    ...      0.00141627 Eh       0.89 kcal/mol
Thermal translational correction ...      0.00141627 Eh       0.89 kcal/mol
-----------------------------------------------------------------------
Total thermal energy                   -401.44434402 Eh


Summary of corrections to the electronic energy:
(perhaps to be used in another calculation)
Total thermal correction                  0.00936019 Eh       5.87 kcal/mol
Non-thermal (ZPE) correction              0.16549012 Eh     103.85 kcal/mol
-----------------------------------------------------------------------
Total correction                          0.17485031 Eh     109.72 kcal/mol


--------
ENTHALPY
--------

The enthalpy is H = U + kB*T
                kB is Boltzmann's constant
Total free energy                 ...   -401.44434402 Eh 
Thermal Enthalpy correction       ...      0.00094421 Eh       0.59 kcal/mol
-----------------------------------------------------------------------
Total Enthalpy                    ...   -401.44339981 Eh


Vibrational entropy computed according to the QRRHO of S. Grimme
Chem.Eur.J. 2012 18 9955

check  

-------
ENTROPY
-------

The entropy contributions are T*S = T*(S(el)+S(vib)+S(rot)+S(trans)
     S(el)   - electronic entropy
     S(vib)  - vibrational entropy
     S(rot)  - rotational entropy
     S(trans)- translational entropy
The entropies will be listed as mutliplied by the temperature to get
units of energy

Electronic entropy                ...      0.00000000 Eh      0.00 kcal/mol
Vibrational entropy               ...      0.01095155 Eh      6.87 kcal/mol
Rotational entropy                ...      0.01248621 Eh      7.84 kcal/mol
Translational entropy             ...      0.01909539 Eh     11.98 kcal/mol
-----------------------------------------------------------------------
Final entropy term                ...      0.04253315 Eh     26.69 kcal/mol


CAUTION: The rotational entropy is not quite correctly treated here
         because it includes a symmetry number that is not yet correctly
         implemented in ORCA!
For a nonlinear molecule the correct rotational entropy is:
    S(rot) = R*(ln(qrot/sn)+1.5)
    R    = 8.31441 J/mol/K = 1.987191683e-3 kcal/mol/K
    qrot = 370641.4556694
    sn is the rotational symmetry number. We have assumed 3 here
       if it is different for your molecule then you should correct
       the printed rotational entropy by manually evaluating the equation
       as given above

For convenience we print out the resulting values for sn=1 - 12:
 sn= 1  qrot/sn=  370641.4557 T*S(rot)=     8.49 kcal/mol T*S(tot)=    27.34 kcal/mol
 sn= 2  qrot/sn=  185320.7278 T*S(rot)=     8.08 kcal/mol T*S(tot)=    26.93 kcal/mol
 sn= 3  qrot/sn=  123547.1519 T*S(rot)=     7.84 kcal/mol T*S(tot)=    26.69 kcal/mol
 sn= 4  qrot/sn=   92660.3639 T*S(rot)=     7.66 kcal/mol T*S(tot)=    26.52 kcal/mol
 sn= 5  qrot/sn=   74128.2911 T*S(rot)=     7.53 kcal/mol T*S(tot)=    26.39 kcal/mol
 sn= 6  qrot/sn=   61773.5759 T*S(rot)=     7.42 kcal/mol T*S(tot)=    26.28 kcal/mol
 sn= 7  qrot/sn=   52948.7794 T*S(rot)=     7.33 kcal/mol T*S(tot)=    26.19 kcal/mol
 sn= 8  qrot/sn=   46330.1820 T*S(rot)=     7.25 kcal/mol T*S(tot)=    26.11 kcal/mol
 sn= 9  qrot/sn=   41182.3840 T*S(rot)=     7.18 kcal/mol T*S(tot)=    26.04 kcal/mol
 sn=10  qrot/sn=   37064.1456 T*S(rot)=     7.12 kcal/mol T*S(tot)=    25.98 kcal/mol
 sn=11  qrot/sn=   33694.6778 T*S(rot)=     7.07 kcal/mol T*S(tot)=    25.92 kcal/mol
 sn=12  qrot/sn=   30886.7880 T*S(rot)=     7.01 kcal/mol T*S(tot)=    25.87 kcal/mol


-------------------
GIBBS FREE ENTHALPY
-------------------

The Gibbs free enthalpy is G = H - T*S

Total enthalpy                    ...   -401.44339981 Eh 
Total entropy correction          ...     -0.04253315 Eh    -26.69 kcal/mol
-----------------------------------------------------------------------
Final Gibbs free enthalpy         ...   -401.48593296 Eh

For completeness - the Gibbs free enthalpy minus the electronic energy
G-E(el)                           ...      0.13326137 Eh     83.62 kcal/mol


Timings for individual modules:

Sum of individual times         ...    10606.206 sec (= 176.770 min)
GTO integral calculation        ...        5.396 sec (=   0.090 min)   0.1 %
SCF iterations                  ...      353.432 sec (=   5.891 min)   3.3 %
SCF Gradient evaluation         ...      170.512 sec (=   2.842 min)   1.6 %
Geometry relaxation             ...        3.728 sec (=   0.062 min)   0.0 %
Analytical frequency calculation...    10073.138 sec (= 167.886 min)  95.0 %
                             ****ORCA TERMINATED NORMALLY****
TOTAL RUN TIME: 0 days 2 hours 56 minutes 48 seconds 665 msec
