
                                 *****************
                                 * O   R   C   A *
                                 *****************

           --- An Ab Initio, DFT and Semiempirical electronic structure package ---

                  #######################################################
                  #                        -***-                        #
                  #  Department of molecular theory and spectroscopy    #
                  #              Directorship: Frank Neese              #
                  # Max Planck Institute for Chemical Energy Conversion #
                  #                  D-45470 Muelheim/Ruhr              #
                  #                       Germany                       #
                  #                                                     #
                  #                  All rights reserved                #
                  #                        -***-                        #
                  #######################################################


                         Program Version 4.0.0 -  RELEASE  -


 With contributions from (in alphabetic order):
   Daniel Aravena         : Magnetic Properties
   Michael Atanasov       : Ab Initio Ligand Field Theory
   Ute Becker             : Parallelization
   Martin Brehm           : Molecular dynamics
   Dmytro Bykov           : SCF Hessian
   Vijay G. Chilkuri      : MRCI spin determinant printing
   Dipayan Datta          : RHF DLPNO-CCSD density
   Achintya Kumar Dutta   : EOM-CC, STEOM-CC
   Dmitry Ganyushin       : Spin-Orbit,Spin-Spin,Magnetic field MRCI
   Yang Guo               : DLPNO-NEVPT2, CIM, IAO-localization
   Andreas Hansen         : Spin unrestricted coupled pair/coupled cluster methods
   Lee Huntington         : MR-EOM, pCC
   Robert Izsak           : Overlap fitted RIJCOSX, COSX-SCS-MP3, EOM
   Christian Kollmar      : KDIIS, OOCD, Brueckner-CCSD(T), CCSD density
   Simone Kossmann        : Meta GGA functionals, TD-DFT gradient, OOMP2, MP2 Hessian
   Martin Krupicka        : AUTO-CI
   Dagmar Lenk            : GEPOL surface
   Dimitrios Liakos       : Extrapolation schemes; parallel MDCI
   Dimitrios Manganas     : ROCIS; embedding schemes
   Dimitrios Pantazis     : SARC Basis sets
   Taras Petrenko         : DFT Hessian,TD-DFT gradient, ASA, ECA, R-Raman, ABS, FL, XAS/XES, NRVS
   Peter Pinski           : DLPNO-MP2
   Christoph Reimann      : Effective Core Potentials
   Marius Retegan         : Local ZFS, SOC
   Christoph Riplinger    : Optimizer, TS searches, QM/MM, DLPNO-CCSD(T), (RO)-DLPNO pert. Triples
   Tobias Risthaus        : Range-separated hybrids, TD-DFT gradient, RPA, STAB
   Michael Roemelt        : Restricted open shell CIS
   Masaaki Saitow         : Open-shell DLPNO
   Barbara Sandhoefer     : DKH picture change effects
   Kantharuban Sivalingam : CASSCF convergence, NEVPT2, FIC-MRCI
   Georgi Stoychev        : AutoAux
   Boris Wezisla          : Elementary symmetry handling
   Frank Wennmohs         : Technical directorship


 We gratefully acknowledge several colleagues who have allowed us to
 interface, adapt or use parts of their codes:
   Stefan Grimme, W. Hujo, H. Kruse,             : VdW corrections, initial TS optimization,
                  C. Bannwarth                     DFT functionals, gCP, sTDA/sTD-DF
   Ed Valeev                                     : LibInt (2-el integral package), F12 methods
   Garnet Chan, S. Sharma, J. Yang, R. Olivares  : DMRG
   Ulf Ekstrom                                   : XCFun DFT Library
   Mihaly Kallay                                 : mrcc  (arbitrary order and MRCC methods)
   Jiri Pittner, Ondrej Demel                    : Mk-CCSD
   Frank Weinhold                                : gennbo (NPA and NBO analysis)
   Christopher J. Cramer and Donald G. Truhlar   : smd solvation model


 Your calculation uses the libint2 library for the computation of 2-el integrals
 For citations please refer to: http://libint.valeyev.net

 This ORCA versions uses:
   CBLAS   interface :  Fast vector & matrix operations
   LAPACKE interface :  Fast linear algebra routines




*****************************************
The coordinations will be read from file: arginine.xyz
*****************************************


Your calculation utilizes the basis: def2-SVP
   F. Weigend and R. Ahlrichs, Phys. Chem. Chem. Phys. 7, 3297 (2005).

================================================================================
                                        WARNINGS
                       Please study these warnings very carefully!
================================================================================

Warning: TCutStore was < 0. Adjusted to Thresh (uncritical)

WARNING: Geometry Optimization
  ===> : Switching off AutoStart
         For restart on a previous wavefunction, please use MOREAD

INFO   : the flag for use of LIBINT has been found!

================================================================================
                                       INPUT FILE
================================================================================
NAME = arginine.inp
|  1> ! PBE0
|  2> ! opt anfreq
|  3> * xyzfile 0 1 arginine.xyz **                         ****END OF INPUT****
================================================================================

                       *****************************
                       * Geometry Optimization Run *
                       *****************************

Geometry optimization settings:
Update method            Update   .... BFGS
Choice of coordinates    CoordSys .... Redundant Internals
Initial Hessian          InHess   .... Almoef's Model

Convergence Tolerances:
Energy Change            TolE     .... 5.0000e-006 Eh
Max. Gradient            TolMAXG  .... 3.0000e-004 Eh/bohr
RMS Gradient             TolRMSG  .... 1.0000e-004 Eh/bohr
Max. Displacement        TolMAXD  .... 4.0000e-003 bohr
RMS Displacement         TolRMSD  .... 2.0000e-003 bohr

------------------------------------------------------------------------------
                        ORCA OPTIMIZATION COORDINATE SETUP
------------------------------------------------------------------------------

The optimization will be done in new redundant internal coordinates
Making redundant internal coordinates   ...  (new redundants) done
Evaluating the initial hessian          ...  (Almloef) done
Evaluating the coordinates              ...  done
Calculating the B-matrix                .... done
Calculating the G-matrix                .... done
Diagonalizing the G-matrix              .... done
Small eigenvalue found = 4.209e-003
Small eigenvalue found = 1.650e-002
Small eigenvalue found = 2.277e-002
Small eigenvalue found = 2.995e-002
The first mode is                       ....   48
The number of degrees of freedom        ....   72

    -----------------------------------------------------------------
                    Redundant Internal Coordinates


    -----------------------------------------------------------------
         Definition                    Initial Value    Approx d2E/dq
    -----------------------------------------------------------------
      1. B(C   1,C   0)                  1.5350         0.366820   
      2. B(C   2,C   1)                  1.5472         0.350637   
      3. B(C   3,C   2)                  1.5245         0.381234   
      4. B(O   4,C   3)                  1.2218         1.038215   
      5. B(O   5,C   3)                  1.3506         0.646724   
      6. B(N   6,C   2)                  1.4671         0.421580   
      7. B(C   7,C   0)                  1.5293         0.374494   
      8. B(N   8,C   7)                  1.4469         0.453982   
      9. B(C   9,N   8)                  1.2928         0.799767   
     10. B(N  10,C   9)                  1.4241         0.493711   
     11. B(N  11,C   9)                  1.4172         0.506456   
     12. B(H  12,C   0)                  1.1125         0.331559   
     13. B(H  13,C   0)                  1.1085         0.336469   
     14. B(H  14,C   1)                  1.1131         0.330783   
     15. B(H  15,C   1)                  1.1123         0.331790   
     16. B(H  16,C   2)                  1.1126         0.331384   
     17. B(H  17,O   5)                  0.9664         0.507852   
     18. B(H  18,N   6)                  1.0467         0.378100   
     19. B(H  19,N   6)                  1.0464         0.378552   
     20. B(H  20,C   7)                  1.1126         0.331453   
     21. B(H  21,C   7)                  1.1127         0.331263   
     22. B(H  22,N  10)                  1.0293         0.403139   
     23. B(H  23,N  10)                  1.0301         0.401939   
     24. B(H  24,N  11)                  1.0308         0.400943   
     25. B(H  25,N  11)                  1.0302         0.401793   
     26. A(H  12,C   0,H  13)          109.7219         0.284082   
     27. A(C   1,C   0,C   7)          111.0944         0.362373   
     28. A(C   1,C   0,H  13)          109.9195         0.319776   
     29. A(C   7,C   0,H  12)          109.1015         0.320090   
     30. A(C   1,C   0,H  12)          109.4913         0.319010   
     31. A(C   7,C   0,H  13)          107.4800         0.320860   
     32. A(H  14,C   1,H  15)          108.0778         0.283362   
     33. A(C   2,C   1,H  15)          109.2934         0.316709   
     34. A(C   0,C   1,H  15)          108.9957         0.319046   
     35. A(C   0,C   1,C   2)          115.1407         0.358330   
     36. A(C   2,C   1,H  14)          107.2512         0.316552   
     37. A(C   0,C   1,H  14)          107.8546         0.318888   
     38. A(C   3,C   2,H  16)          107.8166         0.320997   
     39. A(C   1,C   2,H  16)          109.1109         0.316646   
     40. A(C   1,C   2,N   6)          108.1073         0.364660   
     41. A(C   1,C   2,C   3)          113.5795         0.360690   
     42. A(C   3,C   2,N   6)          110.7764         0.369929   
     43. A(N   6,C   2,H  16)          107.2585         0.324387   
     44. A(C   2,C   3,O   4)          120.3103         0.433498   
     45. A(O   4,C   3,O   5)          118.4047         0.474079   
     46. A(C   2,C   3,O   5)          121.1906         0.398499   
     47. A(C   3,O   5,H  17)          122.4216         0.371305   
     48. A(H  18,N   6,H  19)          109.0712         0.290619   
     49. A(C   2,N   6,H  18)          110.6724         0.328693   
     50. A(C   2,N   6,H  19)          109.9288         0.328758   
     51. A(C   0,C   7,H  20)          109.1253         0.320073   
     52. A(H  20,C   7,H  21)          109.5479         0.283381   
     53. A(C   0,C   7,N   8)          109.3706         0.373526   
     54. A(N   8,C   7,H  21)          109.6313         0.328346   
     55. A(C   0,C   7,H  21)          109.6060         0.320043   
     56. A(N   8,C   7,H  20)          109.5450         0.328377   
     57. A(C   7,N   8,C   9)          125.0229         0.424055   
     58. A(N  10,C   9,N  11)          119.2290         0.396931   
     59. A(N   8,C   9,N  11)          118.8593         0.432454   
     60. A(N   8,C   9,N  10)          121.9114         0.430478   
     61. A(H  22,N  10,H  23)          117.8956         0.296361   
     62. A(C   9,N  10,H  23)          119.8566         0.340878   
     63. A(C   9,N  10,H  22)          122.2472         0.341048   
     64. A(H  24,N  11,H  25)          118.9775         0.296088   
     65. A(C   9,N  11,H  25)          120.5226         0.342315   
     66. A(C   9,N  11,H  24)          120.4999         0.342193   
     67. D(H  15,C   1,C   0,C   7)    -60.2301         0.010768   
     68. D(C   2,C   1,C   0,C   7)    176.5704         0.010768   
     69. D(C   2,C   1,C   0,H  12)     55.9993         0.010768   
     70. D(H  15,C   1,C   0,H  13)     58.6007         0.010768   
     71. D(H  15,C   1,C   0,H  12)    179.1988         0.010768   
     72. D(H  14,C   1,C   0,H  13)    175.7089         0.010768   
     73. D(H  14,C   1,C   0,C   7)     56.8781         0.010768   
     74. D(H  14,C   1,C   0,H  12)    -63.6930         0.010768   
     75. D(C   2,C   1,C   0,H  13)    -64.5988         0.010768   
     76. D(N   6,C   2,C   1,H  14)    -55.4832         0.009903   
     77. D(C   3,C   2,C   1,H  15)    -61.9108         0.009903   
     78. D(N   6,C   2,C   1,C   0)   -175.5080         0.009903   
     79. D(H  16,C   2,C   1,H  15)    177.7878         0.009903   
     80. D(N   6,C   2,C   1,H  15)     61.4509         0.009903   
     81. D(C   3,C   2,C   1,H  14)   -178.8449         0.009903   
     82. D(H  16,C   2,C   1,H  14)     60.8537         0.009903   
     83. D(C   3,C   2,C   1,C   0)     61.1303         0.009903   
     84. D(H  16,C   2,C   1,C   0)    -59.1711         0.009903   
     85. D(O   5,C   3,C   2,H  16)     50.4845         0.010841   
     86. D(O   5,C   3,C   2,N   6)    167.5645         0.010841   
     87. D(O   5,C   3,C   2,C   1)    -70.5457         0.010841   
     88. D(O   4,C   3,C   2,H  16)   -125.9245         0.010841   
     89. D(O   4,C   3,C   2,N   6)     -8.8445         0.010841   
     90. D(O   4,C   3,C   2,C   1)    113.0453         0.010841   
     91. D(H  17,O   5,C   3,O   4)    171.8818         0.030885   
     92. D(H  17,O   5,C   3,C   2)     -4.5939         0.030885   
     93. D(H  19,N   6,C   2,C   1)    175.5780         0.015154   
     94. D(H  18,N   6,C   2,H  16)    178.5924         0.015154   
     95. D(H  18,N   6,C   2,C   3)     61.1701         0.015154   
     96. D(H  19,N   6,C   2,C   3)    -59.3788         0.015154   
     97. D(H  18,N   6,C   2,C   1)    -63.8731         0.015154   
     98. D(H  19,N   6,C   2,H  16)     58.0435         0.015154   
     99. D(H  21,C   7,C   0,H  13)    179.2875         0.011195   
    100. D(H  21,C   7,C   0,H  12)     60.3754         0.011195   
    101. D(H  21,C   7,C   0,C   1)    -60.4256         0.011195   
    102. D(H  20,C   7,C   0,H  13)    -60.7483         0.011195   
    103. D(H  20,C   7,C   0,H  12)   -179.6603         0.011195   
    104. D(H  20,C   7,C   0,C   1)     59.5386         0.011195   
    105. D(N   8,C   7,C   0,H  13)     59.0704         0.011195   
    106. D(N   8,C   7,C   0,H  12)    -59.8416         0.011195   
    107. D(N   8,C   7,C   0,C   1)    179.3573         0.011195   
    108. D(C   9,N   8,C   7,H  21)     61.0152         0.016233   
    109. D(C   9,N   8,C   7,H  20)    -59.2228         0.016233   
    110. D(C   9,N   8,C   7,C   0)   -178.7832         0.016233   
    111. D(N  11,C   9,N   8,C   7)    179.9627         0.049294   
    112. D(N  10,C   9,N   8,C   7)      0.1603         0.049294   
    113. D(H  23,N  10,C   9,N  11)     -0.1624         0.019256   
    114. D(H  23,N  10,C   9,N   8)    179.6394         0.019256   
    115. D(H  22,N  10,C   9,N  11)   -179.8739         0.019256   
    116. D(H  22,N  10,C   9,N   8)     -0.0721         0.019256   
    117. D(H  25,N  11,C   9,N  10)      0.0261         0.020295   
    118. D(H  25,N  11,C   9,N   8)   -179.7817         0.020295   
    119. D(H  24,N  11,C   9,N  10)    179.9622         0.020295   
    120. D(H  24,N  11,C   9,N   8)      0.1544         0.020295   
    -----------------------------------------------------------------

Number of atoms                         .... 26
Number of degrees of freedom            .... 120

         *************************************************************
         *                GEOMETRY OPTIMIZATION CYCLE   1            *
         *************************************************************
---------------------------------
CARTESIAN COORDINATES (ANGSTROEM)
---------------------------------
  C      1.146130    0.090420    0.089700
  C      0.525230   -0.239760   -1.274700
  C     -1.021610   -0.255910   -1.306380
  C     -1.652930    1.084600   -0.947920
  O     -2.267570    1.721550   -1.790070
  O     -1.610880    1.562220    0.314720
  N     -1.445810   -0.690390   -2.641910
  C      2.671780   -0.001550    0.036900
  N      3.217810    0.330730    1.335000
  C      4.477730    0.369820    1.622030
  N      5.480050    0.082470    0.652060
  N      4.868620    0.713030    2.940270
  H      0.764640   -0.622800    0.853500
  H      0.885000    1.127140    0.382520
  H      0.872090   -1.255170   -1.570770
  H      0.900690    0.486700   -2.028670
  H     -1.392960   -1.012250   -0.579760
  H     -1.242210    1.053560    1.049090
  H     -1.143000   -0.000430   -3.368470
  H     -2.487570   -0.783960   -2.672380
  H      3.054150    0.716020   -0.722500
  H      2.974070   -1.035380   -0.242320
  H      5.248670   -0.169790   -0.318620
  H      6.475230    0.128500    0.913900
  H      4.159570    0.925290    3.657660
  H      5.865630    0.755200    3.196120

----------------------------
CARTESIAN COORDINATES (A.U.)
----------------------------
  NO LB      ZA    FRAG     MASS         X           Y           Z
   0 C     6.0000    0    12.011    2.165872    0.170869    0.169508
   1 C     6.0000    0    12.011    0.992541   -0.453081   -2.408834
   2 C     6.0000    0    12.011   -1.930563   -0.483600   -2.468700
   3 C     6.0000    0    12.011   -3.123585    2.049597   -1.791309
   4 O     8.0000    0    15.999   -4.285086    3.253258   -3.382742
   5 O     8.0000    0    15.999   -3.044122    2.952168    0.594735
   6 N     7.0000    0    14.007   -2.732185   -1.304648   -4.992486
   7 C     6.0000    0    12.011    5.048932   -0.002929    0.069731
   8 N     7.0000    0    14.007    6.080780    0.624989    2.522784
   9 C     6.0000    0    12.011    8.461683    0.698859    3.065192
  10 N     7.0000    0    14.007   10.355794    0.155846    1.232215
  11 N     7.0000    0    14.007    9.200358    1.347431    5.556305
  12 H     1.0000    0     1.008    1.444960   -1.176921    1.612881
  13 H     1.0000    0     1.008    1.672408    2.129986    0.722858
  14 H     1.0000    0     1.008    1.648011   -2.371928   -2.968325
  15 H     1.0000    0     1.008    1.702057    0.919730   -3.833631
  16 H     1.0000    0     1.008   -2.632313   -1.912875   -1.095588
  17 H     1.0000    0     1.008   -2.347437    1.990940    1.982493
  18 H     1.0000    0     1.008   -2.159957   -0.000813   -6.365486
  19 H     1.0000    0     1.008   -4.700826   -1.481470   -5.050066
  20 H     1.0000    0     1.008    5.771507    1.353082   -1.365327
  21 H     1.0000    0     1.008    5.620178   -1.956585   -0.457918
  22 H     1.0000    0     1.008    9.918549   -0.320857   -0.602105
  23 H     1.0000    0     1.008   12.236411    0.242830    1.727021
  24 H     1.0000    0     1.008    7.860448    1.748545    6.911976
  25 H     1.0000    0     1.008   11.084434    1.427121    6.039791

--------------------------------
INTERNAL COORDINATES (ANGSTROEM)
--------------------------------
 C      0   0   0     0.000000000000     0.00000000     0.00000000
 C      1   0   0     1.534966775666     0.00000000     0.00000000
 C      2   1   0     1.547248664727   115.14067096     0.00000000
 C      3   2   1     1.524475507871   113.57946925    61.13028735
 O      4   3   2     1.221762765270   120.31028526   113.04529720
 O      4   3   2     1.350610542125   121.19056104   289.45432283
 N      3   2   1     1.467091984608   108.10727912   184.49203845
 C      1   2   3     1.529331305963   111.09441242   176.57040500
 N      8   1   2     1.446935509724   109.37064399   179.35730727
 C      9   8   1     1.292792580192   125.02287517   181.21680327
 N     10   9   8     1.424098734569   121.91140380     0.16027101
 N     10   9   8     1.417160821431   118.85933484   179.96271657
 H      1   2   3     1.112478237315   109.49132535    55.99931214
 H      1   2   3     1.108476787172   109.91951521   295.40120452
 H      2   1   3     1.113115794785   107.85463100   240.30772899
 H      2   1   3     1.112288228878   108.99574759   123.19947221
 H      3   2   1     1.112621967471   109.11085054   300.82892506
 H      6   4   3     0.966411848748   122.42160563   355.40614580
 H      7   3   2     1.046722566538   110.67237578   296.12691034
 H      7   3   2     1.046397469129   109.92877798   175.57800583
 H      8   1   2     1.112565450569   109.12527142    59.53859176
 H      8   1   2     1.112720774229   109.60602897   299.57435396
 H     11  10   9     1.029267445516   122.24722328   359.92785585
 H     11  10   9     1.030078724613   119.85660481   179.63938547
 H     12  10   9     1.030754394703   120.49988152     0.15437488
 H     12  10   9     1.030177883426   120.52262985   180.21826461

---------------------------
INTERNAL COORDINATES (A.U.)
---------------------------
 C      0   0   0     0.000000000000     0.00000000     0.00000000
 C      1   0   0     2.900666830678     0.00000000     0.00000000
 C      2   1   0     2.923876237410   115.14067096     0.00000000
 C      3   2   1     2.880841207748   113.57946925    61.13028735
 O      4   3   2     2.308797026982   120.31028526   113.04529720
 O      4   3   2     2.552284038204   121.19056104   289.45432283
 N      3   2   1     2.772402064179   108.10727912   184.49203845
 C      1   2   3     2.890017336303   111.09441242   176.57040500
 N      8   1   2     2.734311846824   109.37064399   179.35730727
 C      9   8   1     2.443023924529   125.02287517   181.21680327
 N     10   9   8     2.691156595999   121.91140380     0.16027101
 N     10   9   8     2.678045840228   118.85933484   179.96271657
 H      1   2   3     2.102279198473   109.49132535    55.99931214
 H      1   2   3     2.094717553565   109.91951521   295.40120452
 H      2   1   3     2.103484007486   107.85463100   240.30772899
 H      2   1   3     2.101920134563   108.99574759   123.19947221
 H      3   2   1     2.102550809106   109.11085054   300.82892506
 H      6   4   3     1.826253726710   122.42160563   355.40614580
 H      7   3   2     1.978018988952   110.67237578   296.12691034
 H      7   3   2     1.977404643883   109.92877798   175.57800583
 H      8   1   2     2.102444007638   109.12527142    59.53859176
 H      8   1   2     2.102737526817   109.60602897   299.57435396
 H     11  10   9     1.945033590587   122.24722328   359.92785585
 H     11  10   9     1.946566685897   119.85660481   179.63938547
 H     12  10   9     1.947843517325   120.49988152     0.15437488
 H     12  10   9     1.946754068898   120.52262985   180.21826461

---------------------
BASIS SET INFORMATION
---------------------
There are 4 groups of distinct atoms

 Group   1 Type C   : 7s4p1d contracted to 3s2p1d pattern {511/31/1}
 Group   2 Type O   : 7s4p1d contracted to 3s2p1d pattern {511/31/1}
 Group   3 Type N   : 7s4p1d contracted to 3s2p1d pattern {511/31/1}
 Group   4 Type H   : 4s1p contracted to 2s1p pattern {31/1}

Atom   0C    basis set group =>   1
Atom   1C    basis set group =>   1
Atom   2C    basis set group =>   1
Atom   3C    basis set group =>   1
Atom   4O    basis set group =>   2
Atom   5O    basis set group =>   2
Atom   6N    basis set group =>   3
Atom   7C    basis set group =>   1
Atom   8N    basis set group =>   3
Atom   9C    basis set group =>   1
Atom  10N    basis set group =>   3
Atom  11N    basis set group =>   3
Atom  12H    basis set group =>   4
Atom  13H    basis set group =>   4
Atom  14H    basis set group =>   4
Atom  15H    basis set group =>   4
Atom  16H    basis set group =>   4
Atom  17H    basis set group =>   4
Atom  18H    basis set group =>   4
Atom  19H    basis set group =>   4
Atom  20H    basis set group =>   4
Atom  21H    basis set group =>   4
Atom  22H    basis set group =>   4
Atom  23H    basis set group =>   4
Atom  24H    basis set group =>   4
Atom  25H    basis set group =>   4
-------------------------
ECP PARAMETER INFORMATION
-------------------------



------------------------------------------------------------------------------
                           ORCA GTO INTEGRAL CALCULATION
------------------------------------------------------------------------------

                         BASIS SET STATISTICS AND STARTUP INFO

 # of primitive gaussian shells          ...  214
 # of primitive gaussian functions       ...  386
 # of contracted shells                  ...  114
 # of contracted basis functions         ...  238
 Highest angular momentum                ...    2
 Maximum contraction depth               ...    5
 Integral package used                   ... LIBINT
 Integral threshhold            Thresh   ... 2.500e-011
 Primitive cut-off              TCut     ... 2.500e-012


------------------------------ INTEGRAL EVALUATION ----------------------------


 * One electron integrals 

   ECP integrals                          Pre-screening matrix                    ... done
 Shell pair data                         ... done (   0.005 sec)

Timings:
 Total evaluation time               ...     0.003 sec (   0.000 min)
 One electron matrix time            ...     0.040 sec (   0.001 min) =1333.3%
 Schwartz matrix evaluation time     ...     0.094 sec (   0.002 min) =3133.3%

-------------------------------------------------------------------------------
                                 ORCA SCF
-------------------------------------------------------------------------------

------------
SCF SETTINGS
------------
Hamiltonian:
 Density Functional     Method          .... DFT(GTOs)
 Exchange Functional    Exchange        .... PBE
   PBE kappa parameter   XKappa         ....  0.804000
   PBE mue parameter    XMuePBE         ....  0.219520
 Correlation Functional Correlation     .... PBE
   PBE beta parameter  CBetaPBE         ....  0.066725
 LDA part of GGA corr.  LDAOpt          .... PW91-LDA
 Gradients option       PostSCFGGA      .... off
 Hybrid DFT is turned on
   Fraction HF Exchange ScalHFX         ....  0.250000
   Scaling of DF-GGA-X  ScalDFX         ....  0.750000
   Scaling of DF-GGA-C  ScalDFC         ....  1.000000
   Scaling of DF-LDA-C  ScalLDAC        ....  1.000000
   Perturbative correction              ....  0.000000
   NL short-range parameter             ....  6.900000


General Settings:
 Integral files         IntName         .... arginine
 Hartree-Fock type      HFTyp           .... RHF
 Total Charge           Charge          ....    0
 Multiplicity           Mult            ....    1
 Number of Electrons    NEL             ....   94
 Basis Dimension        Dim             ....  238
 Nuclear Repulsion      ENuc            ....    701.2477967313 Eh

Convergence Acceleration:
 DIIS                   CNVDIIS         .... on
   Start iteration      DIISMaxIt       ....    12
   Startup error        DIISStart       ....  0.200000
   # of expansion vecs  DIISMaxEq       ....     5
   Bias factor          DIISBfac        ....   1.050
   Max. coefficient     DIISMaxC        ....  10.000
 Newton-Raphson         CNVNR           .... off
 SOSCF                  CNVSOSCF        .... on
   Start iteration      SOSCFMaxIt      ....   150
   Startup grad/error   SOSCFStart      ....  0.003300
 Level Shifting         CNVShift        .... on
   Level shift para.    LevelShift      ....    0.2500
   Turn off err/grad.   ShiftErr        ....    0.0010
 Zerner damping         CNVZerner       .... off
 Static damping         CNVDamp         .... on
   Fraction old density DampFac         ....    0.7000
   Max. Damping (<1)    DampMax         ....    0.9800
   Min. Damping (>=0)   DampMin         ....    0.0000
   Turn off err/grad.   DampErr         ....    0.1000
 Fernandez-Rico         CNVRico         .... off

SCF Procedure:
 Maximum # iterations   MaxIter         ....   125
 SCF integral mode      SCFMode         .... Direct
   Integral package                     .... LIBINT
 Reset frequeny         DirectResetFreq ....    20
 Integral Threshold     Thresh          .... 2.500e-011 Eh
 Primitive CutOff       TCut            .... 2.500e-012 Eh

Convergence Tolerance:
 Convergence Check Mode ConvCheckMode   .... Total+1el-Energy
 Convergence forced     ConvForced      .... 0
 Energy Change          TolE            .... 1.000e-008 Eh
 1-El. energy change                    .... 1.000e-005 Eh
 Orbital Gradient       TolG            .... 1.000e-005
 Orbital Rotation angle TolX            .... 1.000e-005
 DIIS Error             TolErr          .... 5.000e-007


Diagonalization of the overlap matrix:
Smallest eigenvalue                        ... 1.083e-003
Time for diagonalization                   ...    0.003 sec
Threshold for overlap eigenvalues          ... 1.000e-008
Number of eigenvalues below threshold      ... 0
Time for construction of square roots      ...    0.010 sec
Total time needed                          ...    0.013 sec

-------------------
DFT GRID GENERATION
-------------------

General Integration Accuracy     IntAcc      ...  4.340
Radial Grid Type                 RadialGrid  ... Gauss-Chebyshev
Angular Grid (max. acc.)         AngularGrid ... Lebedev-110
Angular grid pruning method      GridPruning ... 3 (G Style)
Weight generation scheme         WeightScheme... Becke
Basis function cutoff            BFCut       ...   1.0000e-011
Integration weight cutoff        WCut        ...   1.0000e-014
Grids for H and He will be reduced by one unit

# of grid points (after initial pruning)     ...  31292 (   0.0 sec)
# of grid points (after weights+screening)   ...  28636 (   0.1 sec)
nearest neighbour list constructed           ...    0.0 sec
Grid point re-assignment to atoms done       ...    0.0 sec
Grid point division into batches done        ...    0.0 sec
Reduced shell lists constructed in    0.2 sec

Total number of grid points                  ...    28636
Total number of batches                      ...      460
Average number of points per batch           ...       62
Average number of grid points per atom       ...     1101
Average number of shells per batch           ...    64.03 (56.17%)
Average number of basis functions per batch  ...   126.61 (53.20%)
Average number of large shells per batch     ...    46.49 (72.61%)
Average number of large basis fcns per batch ...    91.20 (72.03%)
Maximum spatial batch extension              ...  17.43, 23.42, 17.13 au
Average spatial batch extension              ...   3.28,  3.65,  3.33 au

Time for grid setup =    0.302 sec

------------------------------
INITIAL GUESS: MODEL POTENTIAL
------------------------------
Loading Hartree-Fock densities                     ... done
Calculating cut-offs                               ... done
Setting up the integral package                    ... done
Initializing the effective Hamiltonian             ... done
Starting the Coulomb interaction                   ... done (   0.1 sec)
Reading the grid                                   ... done
Mapping shells                                     ... done
Starting the XC term evaluation                    ... done (   0.2 sec)
  promolecular density results
     # of electrons  =     93.978498192
     EX              =    -77.224400582
     EC              =     -3.126371901
     EX+EC           =    -80.350772482
Transforming the Hamiltonian                       ... done (   0.0 sec)
Diagonalizing the Hamiltonian                      ... done (   0.0 sec)
Back transforming the eigenvectors                 ... done (   0.0 sec)
Now organizing SCF variables                       ... done
                      ------------------
                      INITIAL GUESS DONE (   0.7 sec)
                      ------------------
--------------
SCF ITERATIONS
--------------
ITER       Energy         Delta-E        Max-DP      RMS-DP      [F,P]     Damp
               ***  Starting incremental Fock matrix formation  ***
  0   -604.9310640565   0.000000000000 0.09299856  0.00259706  0.2504896 0.7000
  1   -605.1496218398  -0.218557783275 0.06222708  0.00169674  0.1065078 0.7000
                               ***Turning on DIIS***
  2   -605.2304309366  -0.080809096757 0.08138748  0.00239163  0.0420045 0.0000
  3   -605.3578284712  -0.127397534612 0.05318386  0.00126188  0.0584854 0.0000
  4   -605.3872369192  -0.029408448045 0.01273627  0.00033168  0.0127230 0.0000
  5   -605.3888311256  -0.001594206386 0.00432318  0.00011116  0.0065685 0.0000
                      *** Initiating the SOSCF procedure ***
                           *** Shutting down DIIS ***
                      *** Re-Reading the Fockian *** 
                      *** Removing any level shift *** 
ITER      Energy       Delta-E        Grad      Rot      Max-DP    RMS-DP
  6   -605.38893758  -0.0001064571  0.000390  0.000390  0.001898  0.000041
               *** Restarting incremental Fock matrix formation ***
  7   -605.38894942  -0.0000118326  0.000251  0.000876  0.000980  0.000028
  8   -605.38894877   0.0000006463  0.000442  0.000538  0.000637  0.000015
  9   -605.38895164  -0.0000028694  0.000050  0.000104  0.000197  0.000007
 10   -605.38895162   0.0000000211  0.000045  0.000045  0.000099  0.000003
 11   -605.38895174  -0.0000001218  0.000011  0.000029  0.000061  0.000001
 12   -605.38895174   0.0000000032  0.000018  0.000020  0.000030  0.000001
                  ***Gradient check signals convergence***
              ***Rediagonalizing the Fockian in SOSCF/NRSCF***

               *****************************************************
               *                     SUCCESS                       *
               *           SCF CONVERGED AFTER  13 CYCLES          *
               *****************************************************

Setting up the final grid:

General Integration Accuracy     IntAcc      ...  4.670
Radial Grid Type                 RadialGrid  ... Gauss-Chebyshev
Angular Grid (max. acc.)         AngularGrid ... Lebedev-302
Angular grid pruning method      GridPruning ... 3 (G Style)
Weight generation scheme         WeightScheme... Becke
Basis function cutoff            BFCut       ...   1.0000e-011
Integration weight cutoff        WCut        ...   1.0000e-014
Grids for H and He will be reduced by one unit

# of grid points (after initial pruning)     ... 122060 (   0.1 sec)
# of grid points (after weights+screening)   ... 109810 (   0.4 sec)
nearest neighbour list constructed           ...    0.0 sec
Grid point re-assignment to atoms done       ...    0.0 sec
Grid point division into batches done        ...    0.2 sec
Reduced shell lists constructed in    0.8 sec

Total number of grid points                  ...   109810
Total number of batches                      ...     1730
Average number of points per batch           ...       63
Average number of grid points per atom       ...     4223
Average number of shells per batch           ...    58.54 (51.35%)
Average number of basis functions per batch  ...   115.14 (48.38%)
Average number of large shells per batch     ...    41.70 (71.23%)
Average number of large basis fcns per batch ...    80.74 (70.13%)
Maximum spatial batch extension              ...  15.83, 18.35, 16.84 au
Average spatial batch extension              ...   2.18,  2.30,  2.23 au

Final grid set up in    1.2 sec
Final integration                            ... done (   1.0 sec)
Change in XC energy                          ...    -0.000848507
Integrated number of electrons               ...    94.000028795
Previous integrated no of electrons          ...    93.992236077

----------------
TOTAL SCF ENERGY
----------------

Total Energy       :         -605.38980025 Eh          -16473.49396 eV

Components:
Nuclear Repulsion  :          701.24779673 Eh           19081.92266 eV
Electronic Energy  :        -1306.63759698 Eh          -35555.41662 eV
One Electron Energy:        -2216.03185109 Eh          -60301.29233 eV
Two Electron Energy:          909.39425411 Eh           24745.87571 eV

Virial components:
Potential Energy   :        -1204.50861952 Eh          -32776.34585 eV
Kinetic Energy     :          599.11881927 Eh           16302.85189 eV
Virial Ratio       :            2.01046701


DFT components:
N(Alpha)           :       47.000014397261 electrons
N(Beta)            :       47.000014397261 electrons
N(Total)           :       94.000028794521 electrons
E(X)               :      -58.936648999955 Eh       
E(C)               :       -3.162355445846 Eh       
E(XC)              :      -62.099004445801 Eh       

---------------
SCF CONVERGENCE
---------------

  Last Energy change         ...  -7.3866e-009  Tolerance :  1.0000e-008
  Last MAX-Density change    ...   1.1581e-005  Tolerance :  1.0000e-007
  Last RMS-Density change    ...   2.0335e-007  Tolerance :  5.0000e-009
  Last Orbital Gradient      ...   2.3317e-006  Tolerance :  1.0000e-005
  Last Orbital Rotation      ...   5.2851e-006  Tolerance :  1.0000e-005

             **** THE GBW FILE WAS UPDATED (arginine.gbw) ****
             **** DENSITY FILE WAS UPDATED (arginine.scfp.tmp) ****
             **** ENERGY FILE WAS UPDATED (arginine.en.tmp) ****
----------------
ORBITAL ENERGIES
----------------

  NO   OCC          E(Eh)            E(eV) 
   0   2.0000     -19.249066      -523.7937 
   1   2.0000     -19.183578      -522.0117 
   2   2.0000     -14.411990      -392.1702 
   3   2.0000     -14.404254      -391.9597 
   4   2.0000     -14.367793      -390.9675 
   5   2.0000     -14.330360      -389.9489 
   6   2.0000     -10.352571      -281.7078 
   7   2.0000     -10.333414      -281.1865 
   8   2.0000     -10.275246      -279.6037 
   9   2.0000     -10.253351      -279.0079 
  10   2.0000     -10.239145      -278.6213 
  11   2.0000     -10.229548      -278.3602 
  12   2.0000      -1.105669       -30.0868 
  13   2.0000      -1.017824       -27.6964 
  14   2.0000      -0.969433       -26.3796 
  15   2.0000      -0.893207       -24.3054 
  16   2.0000      -0.873778       -23.7767 
  17   2.0000      -0.863939       -23.5090 
  18   2.0000      -0.794676       -21.6242 
  19   2.0000      -0.724637       -19.7184 
  20   2.0000      -0.669935       -18.2299 
  21   2.0000      -0.635108       -17.2822 
  22   2.0000      -0.611131       -16.6297 
  23   2.0000      -0.588139       -16.0041 
  24   2.0000      -0.541101       -14.7241 
  25   2.0000      -0.538318       -14.6484 
  26   2.0000      -0.536324       -14.5941 
  27   2.0000      -0.497379       -13.5344 
  28   2.0000      -0.487144       -13.2559 
  29   2.0000      -0.481267       -13.0959 
  30   2.0000      -0.465417       -12.6646 
  31   2.0000      -0.452204       -12.3051 
  32   2.0000      -0.447142       -12.1673 
  33   2.0000      -0.431407       -11.7392 
  34   2.0000      -0.415237       -11.2992 
  35   2.0000      -0.395742       -10.7687 
  36   2.0000      -0.392300       -10.6750 
  37   2.0000      -0.374556       -10.1922 
  38   2.0000      -0.356436        -9.6991 
  39   2.0000      -0.353921        -9.6307 
  40   2.0000      -0.343008        -9.3337 
  41   2.0000      -0.318143        -8.6571 
  42   2.0000      -0.276166        -7.5149 
  43   2.0000      -0.275361        -7.4930 
  44   2.0000      -0.245976        -6.6933 
  45   2.0000      -0.237911        -6.4739 
  46   2.0000      -0.217575        -5.9205 
  47   0.0000       0.014109         0.3839 
  48   0.0000       0.042079         1.1450 
  49   0.0000       0.058632         1.5954 
  50   0.0000       0.069357         1.8873 
  51   0.0000       0.073868         2.0101 
  52   0.0000       0.081753         2.2246 
  53   0.0000       0.094825         2.5803 
  54   0.0000       0.099497         2.7075 
  55   0.0000       0.104305         2.8383 
  56   0.0000       0.129603         3.5267 
  57   0.0000       0.133007         3.6193 
  58   0.0000       0.145014         3.9460 
  59   0.0000       0.155436         4.2296 
  60   0.0000       0.170936         4.6514 
  61   0.0000       0.180702         4.9171 
  62   0.0000       0.190834         5.1929 
  63   0.0000       0.202281         5.5043 
  64   0.0000       0.220559         6.0017 
  65   0.0000       0.239714         6.5229 
  66   0.0000       0.243290         6.6202 
  67   0.0000       0.252606         6.8738 
  68   0.0000       0.276934         7.5358 
  69   0.0000       0.315448         8.5838 
  70   0.0000       0.335808         9.1378 
  71   0.0000       0.343195         9.3388 
  72   0.0000       0.388765        10.5788 
  73   0.0000       0.403217        10.9721 
  74   0.0000       0.416619        11.3368 
  75   0.0000       0.440590        11.9891 
  76   0.0000       0.460643        12.5347 
  77   0.0000       0.466162        12.6849 
  78   0.0000       0.482751        13.1363 
  79   0.0000       0.485751        13.2179 
  80   0.0000       0.521550        14.1921 
  81   0.0000       0.529635        14.4121 
  82   0.0000       0.538492        14.6531 
  83   0.0000       0.547151        14.8887 
  84   0.0000       0.556501        15.1432 
  85   0.0000       0.568747        15.4764 
  86   0.0000       0.580797        15.8043 
  87   0.0000       0.594176        16.1683 
  88   0.0000       0.607455        16.5297 
  89   0.0000       0.619127        16.8473 
  90   0.0000       0.633689        17.2436 
  91   0.0000       0.640909        17.4400 
  92   0.0000       0.650853        17.7106 
  93   0.0000       0.664658        18.0863 
  94   0.0000       0.673432        18.3250 
  95   0.0000       0.675773        18.3887 
  96   0.0000       0.686879        18.6909 
  97   0.0000       0.692142        18.8341 
  98   0.0000       0.699037        19.0218 
  99   0.0000       0.709297        19.3010 
 100   0.0000       0.717902        19.5351 
 101   0.0000       0.724748        19.7214 
 102   0.0000       0.733805        19.9679 
 103   0.0000       0.742585        20.2068 
 104   0.0000       0.757196        20.6043 
 105   0.0000       0.761191        20.7131 
 106   0.0000       0.786304        21.3964 
 107   0.0000       0.805574        21.9208 
 108   0.0000       0.810401        22.0521 
 109   0.0000       0.835483        22.7346 
 110   0.0000       0.843006        22.9394 
 111   0.0000       0.851856        23.1802 
 112   0.0000       0.891760        24.2660 
 113   0.0000       0.897490        24.4220 
 114   0.0000       0.933513        25.4022 
 115   0.0000       0.953420        25.9439 
 116   0.0000       0.973183        26.4816 
 117   0.0000       0.973428        26.4883 
 118   0.0000       1.004268        27.3275 
 119   0.0000       1.013848        27.5882 
 120   0.0000       1.034173        28.1413 
 121   0.0000       1.039843        28.2956 
 122   0.0000       1.055854        28.7313 
 123   0.0000       1.090559        29.6756 
 124   0.0000       1.108972        30.1767 
 125   0.0000       1.116117        30.3711 
 126   0.0000       1.133654        30.8483 
 127   0.0000       1.185161        32.2499 
 128   0.0000       1.210534        32.9403 
 129   0.0000       1.230002        33.4701 
 130   0.0000       1.254714        34.1425 
 131   0.0000       1.261770        34.3345 
 132   0.0000       1.275199        34.6999 
 133   0.0000       1.279292        34.8113 
 134   0.0000       1.302253        35.4361 
 135   0.0000       1.330450        36.2034 
 136   0.0000       1.340996        36.4903 
 137   0.0000       1.350543        36.7502 
 138   0.0000       1.372149        37.3381 
 139   0.0000       1.380757        37.5723 
 140   0.0000       1.389434        37.8084 
 141   0.0000       1.394833        37.9553 
 142   0.0000       1.450537        39.4711 
 143   0.0000       1.464280        39.8451 
 144   0.0000       1.482034        40.3282 
 145   0.0000       1.486977        40.4627 
 146   0.0000       1.564082        42.5608 
 147   0.0000       1.621346        44.1191 
 148   0.0000       1.634152        44.4675 
 149   0.0000       1.664029        45.2805 
 150   0.0000       1.681208        45.7480 
 151   0.0000       1.687897        45.9300 
 152   0.0000       1.702612        46.3304 
 153   0.0000       1.717295        46.7300 
 154   0.0000       1.733319        47.1660 
 155   0.0000       1.752746        47.6947 
 156   0.0000       1.753817        47.7238 
 157   0.0000       1.782171        48.4953 
 158   0.0000       1.792514        48.7768 
 159   0.0000       1.803491        49.0755 
 160   0.0000       1.822446        49.5913 
 161   0.0000       1.835035        49.9338 
 162   0.0000       1.849292        50.3218 
 163   0.0000       1.851240        50.3748 
 164   0.0000       1.852896        50.4199 
 165   0.0000       1.860886        50.6373 
 166   0.0000       1.867261        50.8108 
 167   0.0000       1.880268        51.1647 
 168   0.0000       1.882027        51.2126 
 169   0.0000       1.887549        51.3628 
 170   0.0000       1.909613        51.9632 
 171   0.0000       1.920884        52.2699 
 172   0.0000       1.927762        52.4571 
 173   0.0000       1.950167        53.0668 
 174   0.0000       1.961383        53.3719 
 175   0.0000       1.977371        53.8070 
 176   0.0000       2.000073        54.4247 
 177   0.0000       2.015627        54.8480 
 178   0.0000       2.033041        55.3218 
 179   0.0000       2.063582        56.1529 
 180   0.0000       2.080160        56.6040 
 181   0.0000       2.091294        56.9070 
 182   0.0000       2.124162        57.8014 
 183   0.0000       2.170341        59.0580 
 184   0.0000       2.176129        59.2155 
 185   0.0000       2.193769        59.6955 
 186   0.0000       2.233245        60.7697 
 187   0.0000       2.284425        62.1624 
 188   0.0000       2.302439        62.6525 
 189   0.0000       2.327676        63.3393 
 190   0.0000       2.335046        63.5398 
 191   0.0000       2.361879        64.2700 
 192   0.0000       2.385088        64.9015 
 193   0.0000       2.392736        65.1097 
 194   0.0000       2.410742        65.5996 
 195   0.0000       2.432214        66.1839 
 196   0.0000       2.460293        66.9480 
 197   0.0000       2.479363        67.4669 
 198   0.0000       2.494844        67.8882 
 199   0.0000       2.518413        68.5295 
 200   0.0000       2.555001        69.5251 
 201   0.0000       2.561198        69.6937 
 202   0.0000       2.578882        70.1750 
 203   0.0000       2.611148        71.0529 
 204   0.0000       2.631609        71.6097 
 205   0.0000       2.637728        71.7762 
 206   0.0000       2.671661        72.6996 
 207   0.0000       2.729994        74.2869 
 208   0.0000       2.742912        74.6384 
 209   0.0000       2.754998        74.9673 
 210   0.0000       2.798136        76.1412 
 211   0.0000       2.812844        76.5414 
 212   0.0000       2.833596        77.1061 
 213   0.0000       2.844604        77.4056 
 214   0.0000       2.857640        77.7603 
 215   0.0000       2.892751        78.7158 
 216   0.0000       2.904679        79.0403 
 217   0.0000       2.933812        79.8331 
 218   0.0000       2.965228        80.6879 
 219   0.0000       2.996375        81.5355 
 220   0.0000       3.004321        81.7517 
 221   0.0000       3.045052        82.8601 
 222   0.0000       3.061765        83.3149 
 223   0.0000       3.087508        84.0154 
 224   0.0000       3.094231        84.1983 
 225   0.0000       3.131613        85.2155 
 226   0.0000       3.147395        85.6450 
 227   0.0000       3.186314        86.7040 
 228   0.0000       3.198571        87.0375 
 229   0.0000       3.205413        87.2237 
 230   0.0000       3.257511        88.6414 
 231   0.0000       3.300661        89.8155 
 232   0.0000       3.391029        92.2746 
 233   0.0000       3.515328        95.6569 
 234   0.0000       3.536735        96.2394 
 235   0.0000       3.570668        97.1628 
 236   0.0000       3.657389        99.5226 
 237   0.0000       3.835476       104.3686 

                    ********************************
                    * MULLIKEN POPULATION ANALYSIS *
                    ********************************

-----------------------
MULLIKEN ATOMIC CHARGES
-----------------------
   0 C :   -0.096729
   1 C :   -0.039017
   2 C :   -0.072247
   3 C :    0.214640
   4 O :   -0.246775
   5 O :   -0.207239
   6 N :   -0.251945
   7 C :    0.086239
   8 N :   -0.331949
   9 C :    0.130030
  10 N :   -0.241909
  11 N :   -0.210584
  12 H :    0.035728
  13 H :    0.042365
  14 H :    0.051663
  15 H :    0.040301
  16 H :    0.046046
  17 H :    0.198175
  18 H :    0.127939
  19 H :    0.123286
  20 H :    0.016101
  21 H :    0.012666
  22 H :    0.155267
  23 H :    0.131637
  24 H :    0.156228
  25 H :    0.130082
Sum of atomic charges:   -0.0000000

--------------------------------
MULLIKEN REDUCED ORBITAL CHARGES
--------------------------------
  0 C s       :     3.066725  s :     3.066725
      pz      :     0.972268  p :     2.995370
      px      :     0.994799
      py      :     1.028302
      dz2     :     0.007183  d :     0.034634
      dxz     :     0.006409
      dyz     :     0.007439
      dx2y2   :     0.008171
      dxy     :     0.005433
  1 C s       :     3.076639  s :     3.076639
      pz      :     0.996413  p :     2.928557
      px      :     0.909821
      py      :     1.022322
      dz2     :     0.007065  d :     0.033822
      dxz     :     0.006030
      dyz     :     0.007640
      dx2y2   :     0.008023
      dxy     :     0.005063
  2 C s       :     3.088851  s :     3.088851
      pz      :     0.924263  p :     2.926556
      px      :     1.019853
      py      :     0.982441
      dz2     :     0.012113  d :     0.056840
      dxz     :     0.010863
      dyz     :     0.015027
      dx2y2   :     0.010045
      dxy     :     0.008792
  3 C s       :     3.072140  s :     3.072140
      pz      :     0.796949  p :     2.581525
      px      :     0.839969
      py      :     0.944607
      dz2     :     0.046508  d :     0.131695
      dxz     :     0.026075
      dyz     :     0.030147
      dx2y2   :     0.014546
      dxy     :     0.014419
  4 O s       :     3.763133  s :     3.763133
      pz      :     1.528748  p :     4.465678
      px      :     1.380854
      py      :     1.556076
      dz2     :     0.003300  d :     0.017963
      dxz     :     0.004295
      dyz     :     0.004621
      dx2y2   :     0.003031
      dxy     :     0.002716
  5 O s       :     3.676195  s :     3.676195
      pz      :     1.172496  p :     4.519049
      px      :     1.718475
      py      :     1.628078
      dz2     :     0.001832  d :     0.011994
      dxz     :     0.001955
      dyz     :     0.004944
      dx2y2   :     0.001397
      dxy     :     0.001867
  6 N s       :     3.448440  s :     3.448440
      pz      :     1.058798  p :     3.785952
      px      :     1.157069
      py      :     1.570085
      dz2     :     0.004273  d :     0.017553
      dxz     :     0.001529
      dyz     :     0.005996
      dx2y2   :     0.004886
      dxy     :     0.000868
  7 C s       :     2.989999  s :     2.989999
      pz      :     0.886665  p :     2.871658
      px      :     0.991812
      py      :     0.993182
      dz2     :     0.012621  d :     0.052103
      dxz     :     0.011456
      dyz     :     0.011471
      dx2y2   :     0.010018
      dxy     :     0.006537
  8 N s       :     3.537588  s :     3.537588
      pz      :     1.249399  p :     3.770374
      px      :     1.167611
      py      :     1.353363
      dz2     :     0.006540  d :     0.023988
      dxz     :     0.003564
      dyz     :     0.002567
      dx2y2   :     0.005943
      dxy     :     0.005374
  9 C s       :     3.015383  s :     3.015383
      pz      :     0.855662  p :     2.752470
      px      :     0.980780
      py      :     0.916028
      dz2     :     0.020291  d :     0.102117
      dxz     :     0.031912
      dyz     :     0.014944
      dx2y2   :     0.011922
      dxy     :     0.023049
 10 N s       :     3.359766  s :     3.359766
      pz      :     1.090090  p :     3.870103
      px      :     1.040350
      py      :     1.739663
      dz2     :     0.003390  d :     0.012041
      dxz     :     0.003463
      dyz     :     0.001317
      dx2y2   :     0.002660
      dxy     :     0.001211
 11 N s       :     3.348107  s :     3.348107
      pz      :     1.105266  p :     3.850699
      px      :     1.003685
      py      :     1.741748
      dz2     :     0.003737  d :     0.011778
      dxz     :     0.003353
      dyz     :     0.002094
      dx2y2   :     0.002112
      dxy     :     0.000482
 12 H s       :     0.942537  s :     0.942537
      pz      :     0.008705  p :     0.021734
      px      :     0.004532
      py      :     0.008497
 13 H s       :     0.935166  s :     0.935166
      pz      :     0.004732  p :     0.022469
      px      :     0.004523
      py      :     0.013215
 14 H s       :     0.926357  s :     0.926357
      pz      :     0.004842  p :     0.021980
      px      :     0.004341
      py      :     0.012797
 15 H s       :     0.937610  s :     0.937610
      pz      :     0.008457  p :     0.022088
      px      :     0.004798
      py      :     0.008834
 16 H s       :     0.933667  s :     0.933667
      pz      :     0.006673  p :     0.020287
      px      :     0.004606
      py      :     0.009008
 17 H s       :     0.731769  s :     0.731769
      pz      :     0.028775  p :     0.070056
      px      :     0.020752
      py      :     0.020529
 18 H s       :     0.828326  s :     0.828326
      pz      :     0.015429  p :     0.043735
      px      :     0.010858
      py      :     0.017449
 19 H s       :     0.833010  s :     0.833010
      pz      :     0.007144  p :     0.043705
      px      :     0.023856
      py      :     0.012705
 20 H s       :     0.962632  s :     0.962632
      pz      :     0.007686  p :     0.021266
      px      :     0.004875
      py      :     0.008705
 21 H s       :     0.966209  s :     0.966209
      pz      :     0.003917  p :     0.021125
      px      :     0.004344
      py      :     0.012864
 22 H s       :     0.799515  s :     0.799515
      pz      :     0.023564  p :     0.045218
      px      :     0.007538
      py      :     0.014117
 23 H s       :     0.823740  s :     0.823740
      pz      :     0.008196  p :     0.044623
      px      :     0.023289
      py      :     0.013138
 24 H s       :     0.799777  s :     0.799777
      pz      :     0.014734  p :     0.043994
      px      :     0.016336
      py      :     0.012924
 25 H s       :     0.824891  s :     0.824891
      pz      :     0.008003  p :     0.045027
      px      :     0.023354
      py      :     0.013670


                     *******************************
                     * LOEWDIN POPULATION ANALYSIS *
                     *******************************

----------------------
LOEWDIN ATOMIC CHARGES
----------------------
   0 C :   -0.063080
   1 C :   -0.040099
   2 C :   -0.036892
   3 C :    0.082498
   4 O :   -0.187618
   5 O :   -0.041510
   6 N :   -0.119930
   7 C :    0.008135
   8 N :   -0.263513
   9 C :    0.088833
  10 N :   -0.087519
  11 N :   -0.076105
  12 H :    0.024249
  13 H :    0.023825
  14 H :    0.035148
  15 H :    0.029392
  16 H :    0.034611
  17 H :    0.095717
  18 H :    0.068925
  19 H :    0.068909
  20 H :    0.009625
  21 H :    0.008135
  22 H :    0.090868
  23 H :    0.076623
  24 H :    0.094263
  25 H :    0.076508

-------------------------------
LOEWDIN REDUCED ORBITAL CHARGES
-------------------------------
  0 C s       :     2.856569  s :     2.856569
      pz      :     1.029065  p :     3.120757
      px      :     1.029414
      py      :     1.062278
      dz2     :     0.018325  d :     0.085755
      dxz     :     0.015976
      dyz     :     0.017987
      dx2y2   :     0.022105
      dxy     :     0.011361
  1 C s       :     2.854932  s :     2.854932
      pz      :     1.043286  p :     3.100160
      px      :     0.989337
      py      :     1.067537
      dz2     :     0.018185  d :     0.085006
      dxz     :     0.015239
      dyz     :     0.018054
      dx2y2   :     0.021928
      dxy     :     0.011600
  2 C s       :     2.859062  s :     2.859062
      pz      :     0.971070  p :     3.046884
      px      :     1.041622
      py      :     1.034191
      dz2     :     0.027781  d :     0.130946
      dxz     :     0.021509
      dyz     :     0.035669
      dx2y2   :     0.026368
      dxy     :     0.019620
  3 C s       :     2.874084  s :     2.874084
      pz      :     0.901860  p :     2.756967
      px      :     0.867503
      py      :     0.987604
      dz2     :     0.104340  d :     0.286451
      dxz     :     0.055649
      dyz     :     0.067418
      dx2y2   :     0.027532
      dxy     :     0.031513
  4 O s       :     3.560839  s :     3.560839
      pz      :     1.592472  p :     4.596598
      px      :     1.412412
      py      :     1.591714
      dz2     :     0.005001  d :     0.030181
      dxz     :     0.007910
      dyz     :     0.008535
      dx2y2   :     0.003607
      dxy     :     0.005129
  5 O s       :     3.407021  s :     3.407021
      pz      :     1.259976  p :     4.609626
      px      :     1.694730
      py      :     1.654919
      dz2     :     0.005632  d :     0.024864
      dxz     :     0.004490
      dyz     :     0.011175
      dx2y2   :     0.001237
      dxy     :     0.002329
  6 N s       :     3.149644  s :     3.149644
      pz      :     1.133102  p :     3.930409
      px      :     1.225133
      py      :     1.572174
      dz2     :     0.010811  d :     0.039877
      dxz     :     0.005125
      dyz     :     0.012666
      dx2y2   :     0.009985
      dxy     :     0.001289
  7 C s       :     2.844552  s :     2.844552
      pz      :     0.958406  p :     3.024049
      px      :     1.014698
      py      :     1.050945
      dz2     :     0.031226  d :     0.123265
      dxz     :     0.024037
      dyz     :     0.027818
      dx2y2   :     0.027262
      dxy     :     0.012922
  8 N s       :     3.215786  s :     3.215786
      pz      :     1.339752  p :     3.997344
      px      :     1.301453
      py      :     1.356138
      dz2     :     0.014505  d :     0.050383
      dxz     :     0.009050
      dyz     :     0.004660
      dx2y2   :     0.014096
      dxy     :     0.008072
  9 C s       :     2.829996  s :     2.829996
      pz      :     0.922264  p :     2.855045
      px      :     1.013770
      py      :     0.919012
      dz2     :     0.046973  d :     0.226126
      dxz     :     0.074752
      dyz     :     0.029983
      dx2y2   :     0.028686
      dxy     :     0.045732
 10 N s       :     3.057843  s :     3.057843
      pz      :     1.184100  p :     3.995186
      px      :     1.135899
      py      :     1.675187
      dz2     :     0.010388  d :     0.034490
      dxz     :     0.011638
      dyz     :     0.002711
      dx2y2   :     0.007114
      dxy     :     0.002640
 11 N s       :     3.057142  s :     3.057142
      pz      :     1.169935  p :     3.985315
      px      :     1.138953
      py      :     1.676427
      dz2     :     0.010787  d :     0.033648
      dxz     :     0.011982
      dyz     :     0.004273
      dx2y2   :     0.005338
      dxy     :     0.001268
 12 H s       :     0.910601  s :     0.910601
      pz      :     0.026209  p :     0.065150
      px      :     0.015485
      py      :     0.023457
 13 H s       :     0.908362  s :     0.908362
      pz      :     0.014602  p :     0.067813
      px      :     0.014924
      py      :     0.038287
 14 H s       :     0.899117  s :     0.899117
      pz      :     0.014753  p :     0.065736
      px      :     0.014616
      py      :     0.036367
 15 H s       :     0.905156  s :     0.905156
      pz      :     0.025881  p :     0.065452
      px      :     0.015532
      py      :     0.024040
 16 H s       :     0.899761  s :     0.899761
      pz      :     0.022158  p :     0.065628
      px      :     0.016114
      py      :     0.027356
 17 H s       :     0.722221  s :     0.722221
      pz      :     0.067920  p :     0.182062
      px      :     0.055060
      py      :     0.059082
 18 H s       :     0.816080  s :     0.816080
      pz      :     0.040510  p :     0.114995
      px      :     0.023274
      py      :     0.051211
 19 H s       :     0.816434  s :     0.816434
      pz      :     0.017241  p :     0.114657
      px      :     0.064282
      py      :     0.033134
 20 H s       :     0.925420  s :     0.925420
      pz      :     0.025652  p :     0.064955
      px      :     0.015464
      py      :     0.023838
 21 H s       :     0.927066  s :     0.927066
      pz      :     0.013064  p :     0.064799
      px      :     0.014247
      py      :     0.037489
 22 H s       :     0.785629  s :     0.785629
      pz      :     0.062959  p :     0.123502
      px      :     0.017315
      py      :     0.043228
 23 H s       :     0.801239  s :     0.801239
      pz      :     0.019795  p :     0.122137
      px      :     0.062860
      py      :     0.039482
 24 H s       :     0.784283  s :     0.784283
      pz      :     0.040679  p :     0.121454
      px      :     0.040174
      py      :     0.040602
 25 H s       :     0.802072  s :     0.802072
      pz      :     0.019730  p :     0.121420
      px      :     0.061399
      py      :     0.040291


                      *****************************
                      * MAYER POPULATION ANALYSIS *
                      *****************************

  NA   - Mulliken gross atomic population
  ZA   - Total nuclear charge
  QA   - Mulliken gross atomic charge
  VA   - Mayer's total valence
  BVA  - Mayer's bonded valence
  FA   - Mayer's free valence

  ATOM       NA         ZA         QA         VA         BVA        FA
  0 C      6.0967     6.0000    -0.0967     3.9942     3.9942     0.0000
  1 C      6.0390     6.0000    -0.0390     3.9436     3.9436     0.0000
  2 C      6.0722     6.0000    -0.0722     3.9381     3.9381    -0.0000
  3 C      5.7854     6.0000     0.2146     4.2327     4.2327     0.0000
  4 O      8.2468     8.0000    -0.2468     2.2387     2.2387     0.0000
  5 O      8.2072     8.0000    -0.2072     2.2086     2.2086     0.0000
  6 N      7.2519     7.0000    -0.2519     3.0703     3.0703    -0.0000
  7 C      5.9138     6.0000     0.0862     4.0386     4.0386     0.0000
  8 N      7.3319     7.0000    -0.3319     3.0048     3.0048     0.0000
  9 C      5.8700     6.0000     0.1300     4.3105     4.3105    -0.0000
 10 N      7.2419     7.0000    -0.2419     3.1102     3.1102    -0.0000
 11 N      7.2106     7.0000    -0.2106     3.0938     3.0938    -0.0000
 12 H      0.9643     1.0000     0.0357     0.9898     0.9898     0.0000
 13 H      0.9576     1.0000     0.0424     1.0088     1.0088    -0.0000
 14 H      0.9483     1.0000     0.0517     0.9908     0.9908    -0.0000
 15 H      0.9597     1.0000     0.0403     0.9857     0.9857    -0.0000
 16 H      0.9540     1.0000     0.0460     0.9790     0.9790    -0.0000
 17 H      0.8018     1.0000     0.1982     1.0117     1.0117     0.0000
 18 H      0.8721     1.0000     0.1279     1.0029     1.0029    -0.0000
 19 H      0.8767     1.0000     0.1233     0.9962     0.9962     0.0000
 20 H      0.9839     1.0000     0.0161     0.9772     0.9772    -0.0000
 21 H      0.9873     1.0000     0.0127     0.9775     0.9775     0.0000
 22 H      0.8447     1.0000     0.1553     0.9957     0.9957    -0.0000
 23 H      0.8684     1.0000     0.1316     0.9962     0.9962    -0.0000
 24 H      0.8438     1.0000     0.1562     1.0049     1.0049    -0.0000
 25 H      0.8699     1.0000     0.1301     0.9966     0.9966    -0.0000

  Mayer bond orders larger than 0.1
B(  0-C ,  1-C ) :   1.0390 B(  0-C ,  7-C ) :   1.0842 B(  0-C , 12-H ) :   0.9422 
B(  0-C , 13-H ) :   0.9292 B(  1-C ,  2-C ) :   1.0361 B(  1-C , 14-H ) :   0.9411 
B(  1-C , 15-H ) :   0.9368 B(  2-C ,  3-C ) :   0.8878 B(  2-C ,  6-N ) :   1.1123 
B(  2-C , 16-H ) :   0.9106 B(  3-C ,  4-O ) :   2.1099 B(  3-C ,  5-O ) :   1.1696 
B(  5-O , 17-H ) :   0.9349 B(  6-N , 18-H ) :   0.9556 B(  6-N , 19-H ) :   0.9592 
B(  7-C ,  8-N ) :   1.0434 B(  7-C , 20-H ) :   0.9275 B(  7-C , 21-H ) :   0.9288 
B(  8-N ,  9-C ) :   1.8095 B(  9-C , 10-N ) :   1.1457 B(  9-C , 11-N ) :   1.1668 
B( 10-N , 22-H ) :   0.9383 B( 10-N , 23-H ) :   0.9383 B( 11-N , 24-H ) :   0.9318 
B( 11-N , 25-H ) :   0.9434 

-------
TIMINGS
-------

Total SCF time: 0 days 0 hours 1 min 43 sec 

Total time                  ....     103.546 sec
Sum of individual times     ....     103.426 sec  ( 99.9%)

Fock matrix formation       ....     101.273 sec  ( 97.8%)
  XC integration            ....       6.014 sec  (  5.9% of F)
    Basis function eval.    ....       1.825 sec  ( 30.3% of XC)
    Density eval.           ....       1.567 sec  ( 26.1% of XC)
    XC-Functional eval.     ....       0.288 sec  (  4.8% of XC)
    XC-Potential eval.      ....       1.936 sec  ( 32.2% of XC)
Diagonalization             ....       0.086 sec  (  0.1%)
Density matrix formation    ....       0.010 sec  (  0.0%)
Population analysis         ....       0.041 sec  (  0.0%)
Initial guess               ....       0.443 sec  (  0.4%)
Orbital Transformation      ....       0.000 sec  (  0.0%)
Orbital Orthonormalization  ....       0.000 sec  (  0.0%)
DIIS solution               ....       0.026 sec  (  0.0%)
SOSCF solution              ....       0.035 sec  (  0.0%)
Grid generation             ....       1.512 sec  (  1.5%)

-------------------------   --------------------
FINAL SINGLE POINT ENERGY      -605.389800249904
-------------------------   --------------------

------------------------------------------------------------------------------
                         ORCA SCF GRADIENT CALCULATION
------------------------------------------------------------------------------

Gradient of the Kohn-Sham DFT energy:
Kohn-Sham wavefunction type      ... RKS
Hartree-Fock exchange scaling    ...    0.250
Number of operators              ...    1
Number of atoms                  ...   26
Basis set dimensions             ...  238
Integral neglect threshold       ... 2.5e-011
Integral primitive cutoff        ... 2.5e-012

Nuclear repulsion gradient       ... done
One Electron Gradient            
  ECP gradient                   ... done
Pre-screening matrix             ... done
Starting the two electron gradient:
Two electron gradient done
Exchange-correlation gradient    ... done

------------------
CARTESIAN GRADIENT
------------------

   1   C   :   -0.001047248   -0.000023374    0.011640633
   2   C   :    0.001546439    0.001801055   -0.011007086
   3   C   :   -0.004454295    0.007451701    0.018310024
   4   C   :    0.023970536   -0.017504011    0.014990496
   5   O   :   -0.020883472    0.012762999   -0.027305358
   6   O   :    0.005582092   -0.009288488    0.003373896
   7   N   :    0.007413852   -0.002346162   -0.001257663
   8   C   :   -0.011452489   -0.004514014   -0.022332499
   9   N   :   -0.009915804   -0.002980552   -0.014784921
  10   C   :    0.013091809    0.003522392    0.017309514
  11   N   :   -0.003157821   -0.008046564   -0.030495008
  12   N   :   -0.013219975    0.007141311    0.024033561
  13   H   :   -0.003176340   -0.006017801    0.001284465
  14   H   :   -0.001170885    0.006056350   -0.002827971
  15   H   :    0.004562035   -0.007706473    0.002521326
  16   H   :    0.003356280    0.004710995   -0.001807699
  17   H   :   -0.003385965   -0.003462891    0.000882231
  18   H   :   -0.004878095    0.009790111    0.013457383
  19   H   :    0.012161254    0.011962052   -0.018571872
  20   H   :   -0.024044246   -0.007742013    0.002852078
  21   H   :    0.001501003    0.004746686    0.004251479
  22   H   :    0.001018901   -0.002248748    0.005738914
  23   H   :    0.000320478   -0.005390528   -0.020816797
  24   H   :    0.016828949    0.001647121    0.007693668
  25   H   :   -0.010279035    0.005221779    0.019290238
  26   H   :    0.019712044    0.000457067    0.003576967

Difference to translation invariance:
           :   -0.0000000000   -0.0000000000    0.0000000000

Norm of the cartesian gradient     ...    0.1010108762
RMS gradient                       ...    0.0114372295
MAX gradient                       ...    0.0304950083

-------
TIMINGS
-------

Total SCF gradient time            ...       28.946 sec

One electron gradient       ....       0.228 sec  (  0.8%)
Prescreening matrices       ....       0.094 sec  (  0.3%)
Two electron gradient       ....      21.966 sec  ( 75.9%)
XC gradient                 ....       6.559 sec  ( 22.7%)
------------------------------------------------------------------------------
                         ORCA GEOMETRY RELAXATION STEP
------------------------------------------------------------------------------

Reading the OPT-File                    .... done
Getting information on internals        .... done
Copying old internal coords+grads       .... done
Making the new internal coordinates     .... (new redundants).... done
Validating the new internal coordinates .... (new redundants).... done
Calculating the B-matrix                .... done
Calculating the G,G- and P matrices     .... done
Transforming gradient to internals      .... done
Projecting the internal gradient        .... done
Number of atoms                         ....  26
Number of internal coordinates          .... 120
Current Energy                          ....  -605.389800250 Eh
Current gradient norm                   ....     0.101010876 Eh/bohr
Maximum allowed component of the step   ....  0.300
Current trust radius                    ....  0.300
Evaluating the initial hessian          ....  (Almloef) done
Projecting the Hessian                  .... done
Forming the augmented Hessian           .... done
Diagonalizing the augmented Hessian     .... done
Last element of RFO vector              ....  0.959687695
Lowest eigenvalues of augmented Hessian:
 -0.028869808  0.009916661  0.010775416  0.010842576  0.011195762
Length of the computed step             ....  0.292875016
The final length of the internal step   ....  0.292875016
Converting the step to cartesian space:
 Initial RMS(Int)=    0.0267357088
Transforming coordinates:
 Iter   0:  RMS(Cart)=    0.0747856663 RMS(Int)=    0.8108318488
 Iter   1:  RMS(Cart)=    0.0025334300 RMS(Int)=    0.0014744943
 Iter   2:  RMS(Cart)=    0.0002258888 RMS(Int)=    0.0001116601
 Iter   3:  RMS(Cart)=    0.0000243128 RMS(Int)=    0.0000190477
 Iter   4:  RMS(Cart)=    0.0000030484 RMS(Int)=    0.0000017838
 Iter   5:  RMS(Cart)=    0.0000003649 RMS(Int)=    0.0000002746
 Iter   6:  RMS(Cart)=    0.0000000457 RMS(Int)=    0.0000000297
done
Storing new coordinates                 .... done

                                .--------------------.
          ----------------------|Geometry convergence|-------------------------
          Item                value                   Tolerance       Converged
          ---------------------------------------------------------------------
          RMS gradient        0.0105466019            0.0001000000      NO
          MAX gradient        0.0456860217            0.0003000000      NO
          RMS step            0.0267357088            0.0020000000      NO
          MAX step            0.0853423888            0.0040000000      NO
          ........................................................
          Max(Bonds)      0.0452      Max(Angles)    4.39
          Max(Dihed)        4.18      Max(Improp)    0.00
          ---------------------------------------------------------------------

The optimization has not yet converged - more geometry cycles are needed


    ---------------------------------------------------------------------------
                         Redundant Internal Coordinates
                            (Angstroem and degrees)

        Definition                    Value    dE/dq     Step     New-Value
    ----------------------------------------------------------------------------
     1. B(C   1,C   0)                1.5350  0.002689 -0.0036    1.5314   
     2. B(C   2,C   1)                1.5472  0.008359 -0.0117    1.5356   
     3. B(C   3,C   2)                1.5245 -0.004224  0.0055    1.5299   
     4. B(O   4,C   3)                1.2218  0.035984 -0.0178    1.2039   
     5. B(O   5,C   3)                1.3506  0.015933 -0.0125    1.3381   
     6. B(N   6,C   2)                1.4671  0.016190 -0.0190    1.4481   
     7. B(C   7,C   0)                1.5293  0.004692 -0.0062    1.5232   
     8. B(N   8,C   7)                1.4469  0.010616 -0.0116    1.4353   
     9. B(C   9,N   8)                1.2928  0.027415 -0.0175    1.2753   
    10. B(N  10,C   9)                1.4241  0.041937 -0.0425    1.3816   
    11. B(N  11,C   9)                1.4172  0.045686 -0.0452    1.3720   
    12. B(H  12,C   0)                1.1125  0.005829 -0.0086    1.1039   
    13. B(H  13,C   0)                1.1085  0.005194 -0.0075    1.1010   
    14. B(H  14,C   1)                1.1131  0.007782 -0.0115    1.1017   
    15. B(H  15,C   1)                1.1123  0.005433 -0.0080    1.1043   
    16. B(H  16,C   2)                1.1126  0.004061 -0.0060    1.1067   
    17. B(H  17,O   5)                0.9664  0.003206 -0.0032    0.9633   
    18. B(H  18,N   6)                1.0467  0.024290 -0.0316    1.0151   
    19. B(H  19,N   6)                1.0464  0.024549 -0.0319    1.0145   
    20. B(H  20,C   7)                1.1126  0.000674 -0.0010    1.1116   
    21. B(H  21,C   7)                1.1127  0.000927 -0.0014    1.1114   
    22. B(H  22,N  10)                1.0293  0.020882 -0.0256    1.0037   
    23. B(H  23,N  10)                1.0301  0.018288 -0.0225    1.0076   
    24. B(H  24,N  11)                1.0308  0.021571 -0.0266    1.0042   
    25. B(H  25,N  11)                1.0302  0.019985 -0.0246    1.0056   
    26. A(H  12,C   0,H  13)          109.72  0.001110   -0.91    108.82   
    27. A(C   1,C   0,C   7)          111.09 -0.005004    1.04    112.14   
    28. A(C   1,C   0,H  13)          109.92 -0.000403    0.48    110.39   
    29. A(C   7,C   0,H  12)          109.10  0.003216   -0.74    108.36   
    30. A(C   1,C   0,H  12)          109.49 -0.000400    0.24    109.73   
    31. A(C   7,C   0,H  13)          107.48  0.001589   -0.16    107.32   
    32. A(H  14,C   1,H  15)          108.08  0.000685   -0.57    107.51   
    33. A(C   2,C   1,H  15)          109.29  0.002152   -0.55    108.75   
    34. A(C   0,C   1,H  15)          109.00 -0.000516    0.31    109.31   
    35. A(C   0,C   1,C   2)          115.14 -0.003048    0.64    115.78   
    36. A(C   2,C   1,H  14)          107.25  0.003271   -0.70    106.55   
    37. A(C   0,C   1,H  14)          107.85 -0.002354    0.79    108.65   
    38. A(C   3,C   2,H  16)          107.82 -0.000163   -0.34    107.48   
    39. A(C   1,C   2,H  16)          109.11  0.000859   -0.78    108.33   
    40. A(C   1,C   2,N   6)          108.11 -0.002036    0.69    108.79   
    41. A(C   1,C   2,C   3)          113.58  0.004222   -0.75    112.83   
    42. A(C   3,C   2,N   6)          110.78 -0.004073    1.27    112.05   
    43. A(N   6,C   2,H  16)          107.26  0.001141   -0.09    107.17   
    44. A(C   2,C   3,O   4)          120.31 -0.014465    1.92    122.23   
    45. A(O   4,C   3,O   5)          118.40 -0.002147    0.36    118.77   
    46. A(C   2,C   3,O   5)          121.19  0.016454   -2.07    119.12   
    47. A(C   3,O   5,H  17)          122.42  0.030663   -4.39    118.03   
    48. A(H  18,N   6,H  19)          109.07  0.003523   -1.84    107.23   
    49. A(C   2,N   6,H  18)          110.67  0.004511   -1.28    109.39   
    50. A(C   2,N   6,H  19)          109.93 -0.001779   -0.28    109.65   
    51. A(C   0,C   7,H  20)          109.13  0.001680   -0.43    108.69   
    52. A(H  20,C   7,H  21)          109.55  0.002734   -1.29    108.26   
    53. A(C   0,C   7,N   8)          109.37 -0.000573    0.44    109.81   
    54. A(N   8,C   7,H  21)          109.63 -0.002593    0.82    110.45   
    55. A(C   0,C   7,H  21)          109.61  0.001621   -0.44    109.16   
    56. A(N   8,C   7,H  20)          109.55 -0.002859    0.90    110.45   
    57. A(C   7,N   8,C   9)          125.02  0.025511   -3.23    121.80   
    58. A(N  10,C   9,N  11)          119.23  0.024352   -3.19    116.04   
    59. A(N   8,C   9,N  11)          118.86 -0.006178    0.85    119.71   
    60. A(N   8,C   9,N  10)          121.91 -0.018175    2.35    124.26   
    61. A(H  22,N  10,H  23)          117.90 -0.001217    0.20    118.10   
    62. A(C   9,N  10,H  23)          119.86 -0.007571    1.16    121.02   
    63. A(C   9,N  10,H  22)          122.25  0.008787   -1.37    120.88   
    64. A(H  24,N  11,H  25)          118.98 -0.003127    0.53    119.50   
    65. A(C   9,N  11,H  25)          120.52 -0.006010    0.91    121.43   
    66. A(C   9,N  11,H  24)          120.50  0.009137   -1.43    119.07   
    67. D(H  15,C   1,C   0,C   7)    -60.23  0.001187   -0.55    -60.78   
    68. D(C   2,C   1,C   0,C   7)    176.57  0.000947   -0.53    176.04   
    69. D(C   2,C   1,C   0,H  12)     56.00  0.000394   -0.44     55.56   
    70. D(H  15,C   1,C   0,H  13)     58.60 -0.000231    0.21     58.81   
    71. D(H  15,C   1,C   0,H  12)    179.20  0.000634   -0.45    178.75   
    72. D(H  14,C   1,C   0,H  13)    175.71 -0.000994    0.14    175.85   
    73. D(H  14,C   1,C   0,C   7)     56.88  0.000424   -0.62     56.26   
    74. D(H  14,C   1,C   0,H  12)    -63.69 -0.000129   -0.53    -64.22   
    75. D(C   2,C   1,C   0,H  13)    -64.60 -0.000471    0.23    -64.37   
    76. D(N   6,C   2,C   1,H  14)    -55.48 -0.003888    1.74    -53.74   
    77. D(C   3,C   2,C   1,H  15)    -61.91  0.003725   -1.24    -63.15   
    78. D(N   6,C   2,C   1,C   0)   -175.51 -0.001334    0.83   -174.67   
    79. D(H  16,C   2,C   1,H  15)    177.79  0.000553    0.24    178.03   
    80. D(N   6,C   2,C   1,H  15)     61.45 -0.000145    0.39     61.84   
    81. D(C   3,C   2,C   1,H  14)   -178.84 -0.000018    0.11   -178.74   
[...]
     11      -0.000007   0.000163  -0.000021   0.000025   0.000004   0.001091
     12      -0.000005   0.000017   0.000002   0.000001   0.000002  -0.000518
     13       0.000006   0.000091  -0.000003  -0.000001  -0.000009   0.000695
     14      -0.000003  -0.000026   0.000008  -0.000003   0.000003  -0.000962
     15      -0.000006   0.000081  -0.000009   0.000019   0.000005   0.031238
     16       0.000009  -0.000107   0.000016  -0.000021  -0.000007  -0.039922
     17       0.000008  -0.000010  -0.000003   0.000003  -0.000005   0.036195
     18      -0.000053   0.060972  -0.000016   0.000000   0.000002   0.000024
     19      -0.000029   0.042090  -0.000007  -0.000003  -0.000002  -0.000295
     20       0.000015  -0.028259   0.000013   0.000003   0.000005   0.000079
     21      -0.000031  -0.000029   0.000166  -0.000146  -0.000012   0.000140
     22      -0.000441   0.000002  -0.000779  -0.000179   0.000707  -0.000075
     23       0.000198   0.000032  -0.000593  -0.000010   0.000538   0.000128
     24      -0.000565   0.000026   0.001140   0.000054  -0.000024  -0.000059
     25       0.000312   0.000001  -0.000280   0.000192  -0.000066  -0.000008
     26      -0.000360   0.000010   0.000433  -0.000033  -0.000268  -0.000012
     27      -0.000523  -0.000017   0.000784   0.001017  -0.000330   0.000107
     28       0.001332   0.000004   0.000923  -0.000283  -0.000087  -0.000011
     29      -0.001936  -0.000003  -0.001350  -0.000836  -0.000695   0.000025
     30      -0.001387  -0.000004  -0.030942   0.001538  -0.053143  -0.000051
     31       0.001664   0.000020   0.040210  -0.000447   0.005640   0.000014
     32       0.000304   0.000005   0.022989   0.001819  -0.065055   0.000024
     33       0.017338   0.000019  -0.000038   0.077023   0.002058  -0.000050
     34       0.041299   0.000023  -0.001731   0.001329  -0.000142   0.000000
     35       0.033968   0.000031  -0.002244  -0.031098  -0.000642  -0.000015
     36      -0.000016   0.000134  -0.000058   0.000065   0.000261  -0.000720
     37      -0.000122  -0.000121   0.000031   0.000136   0.000294  -0.006667
     38       0.000034   0.000379  -0.000008  -0.000131  -0.000175   0.004829
     39      -0.000087  -0.000027  -0.000353   0.000020   0.000430   0.000803
     40       0.000286   0.000471   0.000416  -0.000104  -0.000472   0.000939
     41       0.000106   0.000339   0.000201  -0.000001  -0.000202  -0.001419
     42      -0.000036  -0.000708   0.000013   0.000015  -0.000031   0.000770
     43       0.000166   0.000383   0.000208  -0.000068  -0.000249  -0.000376
     44       0.000107  -0.000429   0.000078  -0.000043  -0.000094  -0.000018
     45       0.000006  -0.001098   0.000009  -0.000001  -0.000044   0.000053
     46       0.000016  -0.000044  -0.000089   0.000052   0.000092  -0.000177
     47      -0.000019  -0.000657   0.000037  -0.000066  -0.000070   0.000984
     48       0.000007  -0.003900  -0.000020   0.000016   0.000017  -0.001526
     49      -0.000019  -0.005913  -0.000028   0.000028   0.000033  -0.001546
     50       0.000024   0.007840   0.000022  -0.000023  -0.000038   0.000911
     51       0.000083  -0.001118   0.000103  -0.000215  -0.000097  -0.503652
     52      -0.000034   0.001567  -0.000253   0.000303   0.000031   0.649288
     53      -0.000113  -0.001555   0.000177  -0.000099   0.000075  -0.566375
     54       0.000044  -0.056744   0.000042  -0.000019  -0.000038   0.000116
     55       0.000191  -0.419246   0.000114   0.000018   0.000075   0.001947
     56      -0.000183   0.400589  -0.000150  -0.000001  -0.000058  -0.001030
     57       0.000632  -0.791988   0.000263   0.000029  -0.000007   0.001329
     58       0.000142  -0.163916   0.000036   0.000007  -0.000025   0.000808
     59      -0.000011   0.003748   0.000006   0.000014  -0.000001   0.000319
     60       0.000826   0.000041   0.001142   0.000509  -0.000534  -0.001185
     61       0.001161   0.000091   0.000140   0.000214   0.000645  -0.000365
     62      -0.000127  -0.000087   0.000259   0.000547  -0.000726   0.000414
     63      -0.000709   0.000005  -0.002491  -0.000209   0.001163  -0.000308
     64       0.000102   0.000000   0.007810   0.000845  -0.005949   0.000299
     65      -0.000798  -0.000009   0.002927   0.000327  -0.001892   0.000084
     66      -0.008527  -0.000088  -0.208758  -0.005108   0.248389   0.000068
     67      -0.007819  -0.000055  -0.183741  -0.005140   0.243008  -0.000046
     68      -0.020902  -0.000165  -0.569779  -0.013423   0.689966  -0.000243
     69       0.027668   0.000244   0.612192  -0.019083   0.494639   0.000215
     70      -0.017602  -0.000160  -0.379748   0.012680  -0.321932  -0.000038
     71       0.012961   0.000112   0.272029  -0.007191   0.216759   0.000066
     72       0.446937   0.000285  -0.023094  -0.526523  -0.016619   0.000270
     73      -0.226859  -0.000155   0.010889   0.293668   0.008549  -0.000048
     74      -0.397520  -0.000270   0.021098   0.474214   0.015034  -0.000095
     75      -0.673469  -0.000494   0.024222  -0.552591  -0.012241   0.000205
     76      -0.360936  -0.000259   0.011840  -0.311757  -0.006560   0.000059
     77      -0.043990  -0.000025   0.002360  -0.037214  -0.000064   0.000044


-----------
IR SPECTRUM
-----------

 Mode    freq (cm**-1)   T**2         TX         TY         TZ
-------------------------------------------------------------------
   6:        22.80    2.346763  ( -1.239410   0.891208  -0.127960)
   7:        34.04    5.794221  ( -1.712215  -1.688990   0.099269)
   8:        53.85   10.193775  ( -2.818447  -1.343794   0.666595)
   9:        68.24    0.576235  ( -0.306747  -0.156145  -0.676580)
  10:       108.05    0.036515  (  0.013696   0.189973   0.015409)
  11:       128.65    1.662643  (  0.856643  -0.462960  -0.845265)
  12:       167.15    0.845578  (  0.822469   0.402936   0.082255)
  13:       210.53   34.877190  ( -4.384134  -2.496532   3.069835)
  14:       240.39   19.026656  (  3.072431   2.733167  -1.454863)
  15:       260.25    4.455843  ( -1.820354   0.917301  -0.548373)
  16:       271.98   12.424288  ( -0.142647  -1.676006  -3.097571)
  17:       311.24   12.116911  ( -0.196121   2.499855   2.414368)
  18:       372.70   70.160058  (  5.833581  -3.381550   4.969358)
  19:       388.10   33.852660  ( -5.461907  -1.518948  -1.308829)
  20:       413.58    8.828352  (  1.732540   2.413841  -0.005345)
  21:       435.05    0.322579  ( -0.022611   0.034843   0.566440)
  22:       495.58    5.906188  ( -1.442241  -0.183508  -1.947422)
  23:       502.82  360.440520  ( 15.448965   8.539543  -6.989007)
  24:       515.66   50.980544  (  7.075038   0.858403   0.433049)
  25:       558.75    8.561504  ( -2.178273  -0.344532  -1.923000)
  26:       604.62   19.987025  (  4.310585  -0.977690   0.670824)
  27:       644.78  150.967496  ( -7.388018   2.660535  -9.450198)
  28:       668.44   16.206030  ( -1.750885   0.316668  -3.611115)
  29:       744.67    6.759085  (  1.287214  -1.646280   1.546586)
  30:       769.80  140.989106  ( -2.287412   8.102411  -8.373039)
  31:       777.70    0.706045  (  0.708522  -0.262327  -0.367730)
  32:       827.16    9.389988  ( -0.972011   2.592805  -1.312457)
  33:       894.19   30.133510  (  0.053365  -3.804883  -3.956454)
  34:       938.01   90.784510  ( -1.553761   7.536506   5.618845)
  35:       965.77   47.552946  ( -1.780604  -3.768814  -5.493491)
  36:      1022.89   21.540916  (  1.780821  -2.679850  -3.344847)
  37:      1066.03   15.836527  ( -3.012281   1.874006   1.802996)
  38:      1078.23   13.455883  (  2.667422  -1.444975  -2.062230)
  39:      1082.39    0.563892  ( -0.138770   0.165244   0.719256)
  40:      1096.11    0.721433  ( -0.029004   0.407358   0.744749)
  41:      1112.22    5.181361  ( -0.147441   1.686414   1.521720)
  42:      1162.91    0.765843  (  0.567226  -0.520001   0.416770)
  43:      1177.57    9.741215  (  1.385670   2.394655   1.444562)
  44:      1193.23    6.854518  ( -2.415066   0.152980  -0.999285)
  45:      1219.72    2.273110  (  0.641126  -1.101120  -0.805980)
  46:      1244.52    1.648263  ( -0.915966   0.692595   0.574092)
  47:      1270.33   10.795997  (  0.038229   1.064553   3.108257)
  48:      1280.42  122.878088  (  1.745280  -4.126142 -10.139380)
  49:      1309.24   54.474312  (  0.382635  -2.925754  -6.765195)
  50:      1316.15    0.875723  ( -0.207428   0.679958   0.608567)
  51:      1369.84  158.032978  ( -1.759586   4.259010  11.696054)
  52:      1372.52   10.944794  ( -2.610195  -1.040596  -1.746091)
  53:      1416.32   38.403325  ( -5.929407   1.212166  -1.332706)
  54:      1423.99   33.997795  ( -2.264156  -1.382486  -5.192314)
  55:      1457.60   81.801544  (  1.203197  -1.425368  -8.849982)
  56:      1461.53    6.045438  (  0.654474   0.262558   2.355454)
  57:      1465.86    6.227468  ( -2.085239   0.096942   1.367424)
  58:      1487.67    6.040081  (  2.373874  -0.446463  -0.453291)
  59:      1603.89   18.500825  ( -0.124568   2.703851   3.342827)
  60:      1623.83  189.975112  (  3.897934  -6.990042 -11.221432)
  61:      1652.04   26.260402  (  3.250687  -1.858006   3.498750)
  62:      1801.89  623.884281  (-22.603227   1.010732 -10.580964)
  63:      1916.07  281.217797  ( -9.279542   8.592267 -11.012758)
  64:      2924.50   63.993601  (  0.903362  -4.825711  -6.315857)
  65:      2982.50   42.270939  ( -0.347826   5.438604  -3.545637)
  66:      3031.59    6.510842  ( -0.077633   1.364029  -2.155050)
  67:      3035.55   20.993622  ( -2.562280  -1.418032   3.523852)
  68:      3052.29   37.283483  (  2.995382   0.988561  -5.228185)
  69:      3100.84    1.432813  ( -0.286013  -1.141492  -0.219102)
  70:      3119.24   26.209712  (  0.557414  -5.004826   0.922344)
  71:      3528.20    4.818964  (  1.102658  -1.437376   1.239782)
  72:      3589.20   24.258870  ( -0.556978  -3.440094  -3.480574)
  73:      3604.05    5.745333  ( -1.293559  -1.604008   1.224417)
  74:      3617.12   22.832812  (  2.796495  -3.394405  -1.868273)
  75:      3702.28   32.356130  ( -4.882429   0.263924   2.906606)
  76:      3732.91   40.482868  (  3.935770  -0.622506   4.960349)
  77:      3849.63   77.156581  ( -5.460811   3.682395  -5.811720)

The first frequency considered to be a vibration is 6
The total number of vibrations considered is 72


--------------------------
THERMOCHEMISTRY AT 298.15K
--------------------------

Temperature         ... 298.15 K
Pressure            ... 1.00 atm
Total Mass          ... 174.20 AMU

Throughout the following assumptions are being made:
  (1) The electronic state is orbitally nondegenerate
  (2) There are no thermally accessible electronically excited states
  (3) Hindered rotations indicated by low frequency modes are not
      treated as such but are treated as vibrations and this may
      cause some error
  (4) All equations used are the standard statistical mechanics
      equations for an ideal gas
  (5) All vibrations are strictly harmonic

freq.      22.80  E(vib)   ...       0.56 
freq.      34.04  E(vib)   ...       0.55 
freq.      53.85  E(vib)   ...       0.52 
freq.      68.24  E(vib)   ...       0.50 
freq.     108.05  E(vib)   ...       0.45 
freq.     128.65  E(vib)   ...       0.43 
freq.     167.15  E(vib)   ...       0.39 
freq.     210.53  E(vib)   ...       0.34 
freq.     240.39  E(vib)   ...       0.31 
freq.     260.25  E(vib)   ...       0.30 
freq.     271.98  E(vib)   ...       0.29 
freq.     311.24  E(vib)   ...       0.25 
freq.     372.70  E(vib)   ...       0.21 
freq.     388.10  E(vib)   ...       0.20 
freq.     413.58  E(vib)   ...       0.19 
freq.     435.05  E(vib)   ...       0.17 
freq.     495.58  E(vib)   ...       0.14 
freq.     502.82  E(vib)   ...       0.14 
freq.     515.66  E(vib)   ...       0.13 
freq.     558.75  E(vib)   ...       0.12 
freq.     604.62  E(vib)   ...       0.10 
freq.     644.78  E(vib)   ...       0.09 
freq.     668.44  E(vib)   ...       0.08 
freq.     744.67  E(vib)   ...       0.06 
freq.     769.80  E(vib)   ...       0.05 
freq.     777.70  E(vib)   ...       0.05 
freq.     827.16  E(vib)   ...       0.04 
freq.     894.19  E(vib)   ...       0.03 
freq.     938.01  E(vib)   ...       0.03 
freq.     965.77  E(vib)   ...       0.03 
freq.    1022.89  E(vib)   ...       0.02 
freq.    1066.03  E(vib)   ...       0.02 
freq.    1078.23  E(vib)   ...       0.02 
freq.    1082.39  E(vib)   ...       0.02 
freq.    1096.11  E(vib)   ...       0.02 
freq.    1112.22  E(vib)   ...       0.01 
freq.    1162.91  E(vib)   ...       0.01 
freq.    1177.57  E(vib)   ...       0.01 
freq.    1193.23  E(vib)   ...       0.01 
freq.    1219.72  E(vib)   ...       0.01 
freq.    1244.52  E(vib)   ...       0.01 
freq.    1270.33  E(vib)   ...       0.01 
freq.    1280.42  E(vib)   ...       0.01 
freq.    1309.24  E(vib)   ...       0.01 
freq.    1316.15  E(vib)   ...       0.01 
freq.    1369.84  E(vib)   ...       0.01 
freq.    1372.52  E(vib)   ...       0.01 
freq.    1416.32  E(vib)   ...       0.00 
freq.    1423.99  E(vib)   ...       0.00 
freq.    1457.60  E(vib)   ...       0.00 
freq.    1461.53  E(vib)   ...       0.00 
freq.    1465.86  E(vib)   ...       0.00 
freq.    1487.67  E(vib)   ...       0.00 
freq.    1603.89  E(vib)   ...       0.00 
freq.    1623.83  E(vib)   ...       0.00 
freq.    1652.04  E(vib)   ...       0.00 
freq.    1801.89  E(vib)   ...       0.00 
freq.    1916.07  E(vib)   ...       0.00 
freq.    2924.50  E(vib)   ...       0.00 
freq.    2982.50  E(vib)   ...       0.00 
freq.    3031.59  E(vib)   ...       0.00 
freq.    3035.55  E(vib)   ...       0.00 
freq.    3052.29  E(vib)   ...       0.00 
freq.    3100.84  E(vib)   ...       0.00 
freq.    3119.24  E(vib)   ...       0.00 
freq.    3528.20  E(vib)   ...       0.00 
freq.    3589.20  E(vib)   ...       0.00 
freq.    3604.05  E(vib)   ...       0.00 
freq.    3617.12  E(vib)   ...       0.00 
freq.    3702.28  E(vib)   ...       0.00 
freq.    3732.91  E(vib)   ...       0.00 
freq.    3849.63  E(vib)   ...       0.00 

------------
INNER ENERGY
------------

The inner energy is: U= E(el) + E(ZPE) + E(vib) + E(rot) + E(trans)
    E(el)   - is the total energy from the electronic structure calculation
              = E(kin-el) + E(nuc-el) + E(el-el) + E(nuc-nuc)
    E(ZPE)  - the the zero temperature vibrational energy from the frequency calculation
    E(vib)  - the the finite temperature correction to E(ZPE) due to population
              of excited vibrational states
    E(rot)  - is the rotational thermal energy
    E(trans)- is the translational thermal energy

Summary of contributions to the inner energy U:
Electronic energy                ...   -605.41515960 Eh
Zero point energy                ...      0.22314534 Eh     140.03 kcal/mol
Thermal vibrational correction   ...      0.01112146 Eh       6.98 kcal/mol
Thermal rotational correction    ...      0.00141627 Eh       0.89 kcal/mol
Thermal translational correction ...      0.00141627 Eh       0.89 kcal/mol
-----------------------------------------------------------------------
Total thermal energy                   -605.17806026 Eh


Summary of corrections to the electronic energy:
(perhaps to be used in another calculation)
Total thermal correction                  0.01395400 Eh       8.76 kcal/mol
Non-thermal (ZPE) correction              0.22314534 Eh     140.03 kcal/mol
-----------------------------------------------------------------------
Total correction                          0.23709934 Eh     148.78 kcal/mol


--------
ENTHALPY
--------

The enthalpy is H = U + kB*T
                kB is Boltzmann's constant
Total free energy                 ...   -605.17806026 Eh 
Thermal Enthalpy correction       ...      0.00094421 Eh       0.59 kcal/mol
-----------------------------------------------------------------------
Total Enthalpy                    ...   -605.17711605 Eh


Vibrational entropy computed according to the QRRHO of S. Grimme
Chem.Eur.J. 2012 18 9955

check  

-------
ENTROPY
-------

The entropy contributions are T*S = T*(S(el)+S(vib)+S(rot)+S(trans)
     S(el)   - electronic entropy
     S(vib)  - vibrational entropy
     S(rot)  - rotational entropy
     S(trans)- translational entropy
The entropies will be listed as mutliplied by the temperature to get
units of energy

Electronic entropy                ...      0.00000000 Eh      0.00 kcal/mol
Vibrational entropy               ...      0.01984006 Eh     12.45 kcal/mol
Rotational entropy                ...      0.01408147 Eh      8.84 kcal/mol
Translational entropy             ...      0.01965735 Eh     12.34 kcal/mol
-----------------------------------------------------------------------
Final entropy term                ...      0.05357888 Eh     33.62 kcal/mol


CAUTION: The rotational entropy is not quite correctly treated here
         because it includes a symmetry number that is not yet correctly
         implemented in ORCA!
For a nonlinear molecule the correct rotational entropy is:
    S(rot) = R*(ln(qrot/sn)+1.5)
    R    = 8.31441 J/mol/K = 1.987191683e-3 kcal/mol/K
    qrot = 2007839.2777893
    sn is the rotational symmetry number. We have assumed 3 here
       if it is different for your molecule then you should correct
       the printed rotational entropy by manually evaluating the equation
       as given above

For convenience we print out the resulting values for sn=1 - 12:
 sn= 1  qrot/sn= 2007839.2778 T*S(rot)=     9.49 kcal/mol T*S(tot)=    34.27 kcal/mol
 sn= 2  qrot/sn= 1003919.6389 T*S(rot)=     9.08 kcal/mol T*S(tot)=    33.86 kcal/mol
 sn= 3  qrot/sn=  669279.7593 T*S(rot)=     8.84 kcal/mol T*S(tot)=    33.62 kcal/mol
 sn= 4  qrot/sn=  501959.8194 T*S(rot)=     8.67 kcal/mol T*S(tot)=    33.45 kcal/mol
 sn= 5  qrot/sn=  401567.8556 T*S(rot)=     8.53 kcal/mol T*S(tot)=    33.32 kcal/mol
 sn= 6  qrot/sn=  334639.8796 T*S(rot)=     8.43 kcal/mol T*S(tot)=    33.21 kcal/mol
 sn= 7  qrot/sn=  286834.1825 T*S(rot)=     8.33 kcal/mol T*S(tot)=    33.12 kcal/mol
 sn= 8  qrot/sn=  250979.9097 T*S(rot)=     8.26 kcal/mol T*S(tot)=    33.04 kcal/mol
 sn= 9  qrot/sn=  223093.2531 T*S(rot)=     8.19 kcal/mol T*S(tot)=    32.97 kcal/mol
 sn=10  qrot/sn=  200783.9278 T*S(rot)=     8.12 kcal/mol T*S(tot)=    32.91 kcal/mol
 sn=11  qrot/sn=  182530.8434 T*S(rot)=     8.07 kcal/mol T*S(tot)=    32.85 kcal/mol
 sn=12  qrot/sn=  167319.9398 T*S(rot)=     8.01 kcal/mol T*S(tot)=    32.80 kcal/mol


-------------------
GIBBS FREE ENTHALPY
-------------------

The Gibbs free enthalpy is G = H - T*S

Total enthalpy                    ...   -605.17711605 Eh 
Total entropy correction          ...     -0.05357888 Eh    -33.62 kcal/mol
-----------------------------------------------------------------------
Final Gibbs free enthalpy         ...   -605.23069493 Eh

For completeness - the Gibbs free enthalpy minus the electronic energy
G-E(el)                           ...      0.18446467 Eh    115.75 kcal/mol


Timings for individual modules:

Sum of individual times         ...    40008.399 sec (= 666.807 min)
GTO integral calculation        ...       10.433 sec (=   0.174 min)   0.0 %
SCF iterations                  ...     1592.794 sec (=  26.547 min)   4.0 %
SCF Gradient evaluation         ...      799.065 sec (=  13.318 min)   2.0 %
Geometry relaxation             ...        9.006 sec (=   0.150 min)   0.0 %
Analytical frequency calculation...    37597.101 sec (= 626.618 min)  94.0 %
                             ****ORCA TERMINATED NORMALLY****
TOTAL RUN TIME: 0 days 11 hours 6 minutes 54 seconds 978 msec
