
                                 *****************
                                 * O   R   C   A *
                                 *****************

           --- An Ab Initio, DFT and Semiempirical electronic structure package ---

                  #######################################################
                  #                        -***-                        #
                  #  Department of molecular theory and spectroscopy    #
                  #              Directorship: Frank Neese              #
                  # Max Planck Institute for Chemical Energy Conversion #
                  #                  D-45470 Muelheim/Ruhr              #
                  #                       Germany                       #
                  #                                                     #
                  #                  All rights reserved                #
                  #                        -***-                        #
                  #######################################################


                         Program Version 4.0.0 -  RELEASE  -


 With contributions from (in alphabetic order):
   Daniel Aravena         : Magnetic Properties
   Michael Atanasov       : Ab Initio Ligand Field Theory
   Ute Becker             : Parallelization
   Martin Brehm           : Molecular dynamics
   Dmytro Bykov           : SCF Hessian
   Vijay G. Chilkuri      : MRCI spin determinant printing
   Dipayan Datta          : RHF DLPNO-CCSD density
   Achintya Kumar Dutta   : EOM-CC, STEOM-CC
   Dmitry Ganyushin       : Spin-Orbit,Spin-Spin,Magnetic field MRCI
   Yang Guo               : DLPNO-NEVPT2, CIM, IAO-localization
   Andreas Hansen         : Spin unrestricted coupled pair/coupled cluster methods
   Lee Huntington         : MR-EOM, pCC
   Robert Izsak           : Overlap fitted RIJCOSX, COSX-SCS-MP3, EOM
   Christian Kollmar      : KDIIS, OOCD, Brueckner-CCSD(T), CCSD density
   Simone Kossmann        : Meta GGA functionals, TD-DFT gradient, OOMP2, MP2 Hessian
   Martin Krupicka        : AUTO-CI
   Dagmar Lenk            : GEPOL surface
   Dimitrios Liakos       : Extrapolation schemes; parallel MDCI
   Dimitrios Manganas     : ROCIS; embedding schemes
   Dimitrios Pantazis     : SARC Basis sets
   Taras Petrenko         : DFT Hessian,TD-DFT gradient, ASA, ECA, R-Raman, ABS, FL, XAS/XES, NRVS
   Peter Pinski           : DLPNO-MP2
   Christoph Reimann      : Effective Core Potentials
   Marius Retegan         : Local ZFS, SOC
   Christoph Riplinger    : Optimizer, TS searches, QM/MM, DLPNO-CCSD(T), (RO)-DLPNO pert. Triples
   Tobias Risthaus        : Range-separated hybrids, TD-DFT gradient, RPA, STAB
   Michael Roemelt        : Restricted open shell CIS
   Masaaki Saitow         : Open-shell DLPNO
   Barbara Sandhoefer     : DKH picture change effects
   Kantharuban Sivalingam : CASSCF convergence, NEVPT2, FIC-MRCI
   Georgi Stoychev        : AutoAux
   Boris Wezisla          : Elementary symmetry handling
   Frank Wennmohs         : Technical directorship


 We gratefully acknowledge several colleagues who have allowed us to
 interface, adapt or use parts of their codes:
   Stefan Grimme, W. Hujo, H. Kruse,             : VdW corrections, initial TS optimization,
                  C. Bannwarth                     DFT functionals, gCP, sTDA/sTD-DF
   Ed Valeev                                     : LibInt (2-el integral package), F12 methods
   Garnet Chan, S. Sharma, J. Yang, R. Olivares  : DMRG
   Ulf Ekstrom                                   : XCFun DFT Library
   Mihaly Kallay                                 : mrcc  (arbitrary order and MRCC methods)
   Jiri Pittner, Ondrej Demel                    : Mk-CCSD
   Frank Weinhold                                : gennbo (NPA and NBO analysis)
   Christopher J. Cramer and Donald G. Truhlar   : smd solvation model


 Your calculation uses the libint2 library for the computation of 2-el integrals
 For citations please refer to: http://libint.valeyev.net

 This ORCA versions uses:
   CBLAS   interface :  Fast vector & matrix operations
   LAPACKE interface :  Fast linear algebra routines




*****************************************
The coordinations will be read from file: glutamine.xyz
*****************************************


Your calculation utilizes the basis: def2-SVP
   F. Weigend and R. Ahlrichs, Phys. Chem. Chem. Phys. 7, 3297 (2005).

================================================================================
                                        WARNINGS
                       Please study these warnings very carefully!
================================================================================

Warning: TCutStore was < 0. Adjusted to Thresh (uncritical)

WARNING: Geometry Optimization
  ===> : Switching off AutoStart
         For restart on a previous wavefunction, please use MOREAD

INFO   : the flag for use of LIBINT has been found!

================================================================================
                                       INPUT FILE
================================================================================
NAME = glutamine.inp
|  1> ! PBE0
|  2> ! opt anfreq
|  3> * xyzfile 0 1 glutamine.xyz **                         ****END OF INPUT****
================================================================================

                       *****************************
                       * Geometry Optimization Run *
                       *****************************

Geometry optimization settings:
Update method            Update   .... BFGS
Choice of coordinates    CoordSys .... Redundant Internals
Initial Hessian          InHess   .... Almoef's Model

Convergence Tolerances:
Energy Change            TolE     .... 5.0000e-006 Eh
Max. Gradient            TolMAXG  .... 3.0000e-004 Eh/bohr
RMS Gradient             TolRMSG  .... 1.0000e-004 Eh/bohr
Max. Displacement        TolMAXD  .... 4.0000e-003 bohr
RMS Displacement         TolRMSD  .... 2.0000e-003 bohr

------------------------------------------------------------------------------
                        ORCA OPTIMIZATION COORDINATE SETUP
------------------------------------------------------------------------------

The optimization will be done in new redundant internal coordinates
Making redundant internal coordinates   ...  (new redundants) done
Evaluating the initial hessian          ...  (Almloef) done
Evaluating the coordinates              ...  done
Calculating the B-matrix                .... done
Calculating the G-matrix                .... done
Diagonalizing the G-matrix              .... done
Small eigenvalue found = 1.331e-002
The first mode is                       ....   38
The number of degrees of freedom        ....   54

    -----------------------------------------------------------------
                    Redundant Internal Coordinates


    -----------------------------------------------------------------
         Definition                    Initial Value    Approx d2E/dq
    -----------------------------------------------------------------
      1. B(C   1,C   0)                  1.5393         0.361064   
      2. B(C   2,C   1)                  1.5112         0.400297   
      3. B(O   3,C   2)                  1.2231         1.033091   
      4. B(N   4,C   2)                  1.3526         0.641923   
      5. B(C   5,C   0)                  1.5422         0.357165   
      6. B(C   6,C   5)                  1.5202         0.387268   
      7. B(O   7,C   6)                  1.2218         1.037957   
      8. B(O   8,C   6)                  1.3508         0.646388   
      9. B(N   9,C   5)                  1.4673         0.421335   
     10. B(H  10,C   0)                  1.1129         0.331095   
     11. B(H  11,C   0)                  1.1116         0.332589   
     12. B(H  12,C   1)                  1.1112         0.333093   
     13. B(H  13,C   1)                  1.1115         0.332700   
     14. B(H  14,N   4)                  1.0306         0.401170   
     15. B(H  15,N   4)                  1.0309         0.400733   
     16. B(H  16,C   5)                  1.1122         0.331911   
     17. B(H  17,O   8)                  0.9669         0.506968   
     18. B(H  18,N   9)                  1.0466         0.378260   
     19. B(H  19,N   9)                  1.0462         0.378780   
     20. A(C   1,C   0,C   5)          112.1880         0.358490   
     21. A(H  10,C   0,H  11)          108.4776         0.283509   
     22. A(C   1,C   0,H  10)          109.3216         0.318115   
     23. A(C   5,C   0,H  10)          109.2395         0.317553   
     24. A(C   5,C   0,H  11)          109.3460         0.317786   
     25. A(C   1,C   0,H  11)          108.1941         0.318349   
     26. A(C   0,C   1,C   2)          112.9682         0.365535   
     27. A(H  12,C   1,H  13)          108.6991         0.283789   
     28. A(C   2,C   1,H  13)          108.4866         0.323784   
     29. A(C   0,C   1,H  13)          109.1469         0.318366   
     30. A(C   2,C   1,H  12)          107.9758         0.323847   
     31. A(C   0,C   1,H  12)          109.4748         0.318427   
     32. A(C   1,C   2,N   4)          119.7487         0.401409   
     33. A(C   1,C   2,O   3)          120.8152         0.436934   
     34. A(O   3,C   2,N   4)          119.4361         0.473000   
     35. A(H  14,N   4,H  15)          118.7982         0.295991   
     36. A(C   2,N   4,H  15)          120.5497         0.356116   
     37. A(C   2,N   4,H  14)          120.6520         0.356182   
     38. A(C   6,C   5,H  16)          107.8304         0.321907   
     39. A(C   0,C   5,H  16)          108.8629         0.317680   
     40. A(C   0,C   5,C   6)          110.3846         0.362798   
     41. A(C   6,C   5,N   9)          111.3143         0.370893   
     42. A(C   0,C   5,N   9)          110.0326         0.365777   
     43. A(N   9,C   5,H  16)          108.3344         0.324441   
     44. A(C   5,C   6,O   7)          120.6207         0.434706   
     45. A(O   7,C   6,O   8)          118.7501         0.474012   
     46. A(C   5,C   6,O   8)          120.6249         0.399565   
     47. A(C   6,O   8,H  17)          122.1060         0.371161   
     48. A(H  18,N   9,H  19)          109.1606         0.290666   
     49. A(C   5,N   9,H  19)          109.8786         0.328759   
     50. A(C   5,N   9,H  18)          110.4978         0.328685   
     51. D(H  13,C   1,C   0,H  11)     61.8214         0.010455   
     52. D(H  13,C   1,C   0,H  10)    179.7754         0.010455   
     53. D(C   2,C   1,C   0,H  10)     58.9982         0.010455   
     54. D(H  13,C   1,C   0,C   5)    -58.8850         0.010455   
     55. D(H  12,C   1,C   0,C   5)     59.9797         0.010455   
     56. D(C   2,C   1,C   0,H  11)    -58.9558         0.010455   
     57. D(H  12,C   1,C   0,H  11)   -179.3138         0.010455   
     58. D(H  12,C   1,C   0,H  10)    -61.3598         0.010455   
     59. D(C   2,C   1,C   0,C   5)   -179.6623         0.010455   
     60. D(N   4,C   2,C   1,H  12)    -58.4916         0.011891   
     61. D(O   3,C   2,C   1,H  13)   -120.9395         0.011891   
     62. D(O   3,C   2,C   1,H  12)    121.4237         0.011891   
     63. D(O   3,C   2,C   1,C   0)      0.2127         0.011891   
     64. D(N   4,C   2,C   1,H  13)     59.1453         0.011891   
     65. D(N   4,C   2,C   1,C   0)   -179.7025         0.011891   
     66. D(H  15,N   4,C   2,O   3)     -0.0122         0.033556   
     67. D(H  15,N   4,C   2,C   1)    179.9042         0.033556   
     68. D(H  14,N   4,C   2,O   3)   -179.8989         0.033556   
     69. D(H  14,N   4,C   2,C   1)      0.0176         0.033556   
     70. D(H  16,C   5,C   0,H  11)    -60.4391         0.010246   
     71. D(H  16,C   5,C   0,C   1)     59.5994         0.010246   
     72. D(N   9,C   5,C   0,H  11)   -179.0197         0.010246   
     73. D(N   9,C   5,C   0,H  10)     62.4054         0.010246   
     74. D(N   9,C   5,C   0,C   1)    -58.9812         0.010246   
     75. D(C   6,C   5,C   0,H  11)     57.7349         0.010246   
     76. D(H  16,C   5,C   0,H  10)   -179.0140         0.010246   
     77. D(C   6,C   5,C   0,C   1)    177.7733         0.010246   
     78. D(C   6,C   5,C   0,H  10)    -60.8400         0.010246   
     79. D(O   7,C   6,C   5,H  16)   -121.4123         0.011166   
     80. D(O   7,C   6,C   5,N   9)     -2.7142         0.011166   
     81. D(O   7,C   6,C   5,C   0)    119.7828         0.011166   
     82. D(O   8,C   6,C   5,H  16)     57.8264         0.011166   
     83. D(O   8,C   6,C   5,N   9)    176.5245         0.011166   
     84. D(O   8,C   6,C   5,C   0)    -60.9785         0.011166   
     85. D(H  17,O   8,C   6,O   7)    178.2234         0.030851   
     86. D(H  17,O   8,C   6,C   5)     -1.0294         0.030851   
     87. D(H  19,N   9,C   5,H  16)     58.1891         0.015137   
     88. D(H  19,N   9,C   5,C   6)    -60.2065         0.015137   
     89. D(H  19,N   9,C   5,C   0)    177.0939         0.015137   
     90. D(H  18,N   9,C   5,H  16)    178.7048         0.015137   
     91. D(H  18,N   9,C   5,C   6)     60.3092         0.015137   
     92. D(H  18,N   9,C   5,C   0)    -62.3904         0.015137   
    -----------------------------------------------------------------

Number of atoms                         .... 20
Number of degrees of freedom            .... 92

         *************************************************************
         *                GEOMETRY OPTIMIZATION CYCLE   1            *
         *************************************************************
---------------------------------
CARTESIAN COORDINATES (ANGSTROEM)
---------------------------------
  C      0.920340    0.027450    0.087690
  C      0.359360   -1.160530    0.889790
  C     -1.151210   -1.201370    0.904490
  O     -1.806710   -0.352020    0.317190
  N     -1.789480   -2.187020    1.575860
  C      2.462410    0.047040    0.077520
  C      2.971720    1.202220   -0.769340
  O      3.670300    2.074860   -0.276030
  O      2.673180    1.275100   -2.084670
  N      2.973120    0.126710    1.450710
  H      0.544410    0.978460    0.526680
  H      0.546160   -0.050900   -0.956140
  H      0.710940   -1.096170    1.941960
  H      0.733280   -2.108790    0.446490
  H     -1.255750   -2.911370    2.078440
  H     -2.819460   -2.225910    1.595270
  H      2.831020   -0.897990   -0.378560
  H      2.145780    0.598180   -2.530200
  H      2.663480    1.016870    1.905820
  H      4.018690    0.090050    1.444090

----------------------------
CARTESIAN COORDINATES (A.U.)
----------------------------
  NO LB      ZA    FRAG     MASS         X           Y           Z
   0 C     6.0000    0    12.011    1.739191    0.051873    0.165710
   1 C     6.0000    0    12.011    0.679092   -2.193084    1.681459
   2 C     6.0000    0    12.011   -2.175472   -2.270260    1.709238
   3 O     8.0000    0    15.999   -3.414187   -0.665221    0.599402
   4 N     7.0000    0    14.007   -3.381627   -4.132869    2.977944
   5 C     6.0000    0    12.011    4.653281    0.088893    0.146492
   6 C     6.0000    0    12.011    5.615737    2.271867   -1.453842
   7 O     8.0000    0    15.999    6.935862    3.920917   -0.521621
   8 O     8.0000    0    15.999    5.051578    2.409590   -3.939455
   9 N     7.0000    0    14.007    5.618383    0.239447    2.741445
  10 H     1.0000    0     1.008    1.028786    1.849021    0.995281
  11 H     1.0000    0     1.008    1.032093   -0.096187   -1.806843
  12 H     1.0000    0     1.008    1.343482   -2.071461    3.669773
  13 H     1.0000    0     1.008    1.385698   -3.985036    0.843744
  14 H     1.0000    0     1.008   -2.373024   -5.501692    3.927682
  15 H     1.0000    0     1.008   -5.328007   -4.206360    3.014623
  16 H     1.0000    0     1.008    5.349852   -1.696955   -0.715375
  17 H     1.0000    0     1.008    4.054937    1.130396   -4.781385
  18 H     1.0000    0     1.008    5.033248    1.921606    3.601478
  19 H     1.0000    0     1.008    7.594224    0.170170    2.728935

--------------------------------
INTERNAL COORDINATES (ANGSTROEM)
--------------------------------
 C      0   0   0     0.000000000000     0.00000000     0.00000000
 C      1   0   0     1.539272377067     0.00000000     0.00000000
 C      2   1   0     1.511193475535   112.96823771     0.00000000
 O      3   2   1     1.223109546402   120.81518695     0.21272036
 N      3   2   1     1.352638973378   119.74867132   180.29748234
 C      1   2   3     1.542227960420   112.18802766   180.33773671
 C      6   1   2     1.520200436817   110.38458016   177.77329901
 O      7   6   1     1.221830324595   120.62072641   119.78283344
 O      7   6   1     1.350751877622   120.62489661   299.02152916
 N      6   1   2     1.467250077219   110.03263750   301.01877705
 H      1   2   3     1.112859202730   109.32157644    58.99819359
 H      1   2   3     1.111634141163   108.19406508   301.04419935
 H      2   1   3     1.111221136813   109.47479071   239.64198922
 H      2   1   3     1.111543109375   109.14686024   120.77721331
 H      5   3   2     1.030600452067   120.65204709     0.00000000
 H      5   3   2     1.030896687646   120.54967018   179.90416653
 H      6   1   2     1.112188832618   108.86288490    59.59935561
 H      9   7   6     0.966885943274   122.10602167   358.97064206
 H     10   6   1     1.046607312845   110.49779765   297.60961332
 H     10   6   1     1.046233437097   109.87856337   177.09390779

---------------------------
INTERNAL COORDINATES (A.U.)
---------------------------
 C      0   0   0     0.000000000000     0.00000000     0.00000000
 C      1   0   0     2.908803238166     0.00000000     0.00000000
 C      2   1   0     2.855741804130   112.96823771     0.00000000
 O      3   2   1     2.311342074485   120.81518695     0.21272036
 N      3   2   1     2.556117217752   119.74867132   180.29748234
 C      1   2   3     2.914388481269   112.18802766   180.33773671
 C      6   1   2     2.872762494252   110.38458016   177.77329901
 O      7   6   1     2.308924695605   120.62072641   119.78283344
 O      7   6   1     2.552551123586   120.62489661   299.02152916
 N      6   1   2     2.772700815919   110.03263750   301.01877705
 H      1   2   3     2.102999118773   109.32157644    58.99819359
 H      1   2   3     2.100684087916   108.19406508   301.04419935
 H      2   1   3     2.099903622801   109.47479071   239.64198922
 H      2   1   3     2.100512062767   109.14686024   120.77721331
 H      5   3   2     1.947552607901   120.65204709     0.00000000
 H      5   3   2     1.948112412018   120.54967018   179.90416653
 H      6   1   2     2.101732302853   108.86288490    59.59935561
 H      9   7   6     1.827149635525   122.10602167   358.97064206
 H     10   6   1     1.977801191036   110.49779765   297.60961332
 H     10   6   1     1.977094668265   109.87856337   177.09390779

---------------------
BASIS SET INFORMATION
---------------------
There are 4 groups of distinct atoms

 Group   1 Type C   : 7s4p1d contracted to 3s2p1d pattern {511/31/1}
 Group   2 Type O   : 7s4p1d contracted to 3s2p1d pattern {511/31/1}
 Group   3 Type N   : 7s4p1d contracted to 3s2p1d pattern {511/31/1}
 Group   4 Type H   : 4s1p contracted to 2s1p pattern {31/1}

Atom   0C    basis set group =>   1
Atom   1C    basis set group =>   1
Atom   2C    basis set group =>   1
Atom   3O    basis set group =>   2
Atom   4N    basis set group =>   3
Atom   5C    basis set group =>   1
Atom   6C    basis set group =>   1
Atom   7O    basis set group =>   2
Atom   8O    basis set group =>   2
Atom   9N    basis set group =>   3
Atom  10H    basis set group =>   4
Atom  11H    basis set group =>   4
Atom  12H    basis set group =>   4
Atom  13H    basis set group =>   4
Atom  14H    basis set group =>   4
Atom  15H    basis set group =>   4
Atom  16H    basis set group =>   4
Atom  17H    basis set group =>   4
Atom  18H    basis set group =>   4
Atom  19H    basis set group =>   4
-------------------------
ECP PARAMETER INFORMATION
-------------------------



------------------------------------------------------------------------------
                           ORCA GTO INTEGRAL CALCULATION
------------------------------------------------------------------------------

                         BASIS SET STATISTICS AND STARTUP INFO

 # of primitive gaussian shells          ...  170
 # of primitive gaussian functions       ...  310
 # of contracted shells                  ...   90
 # of contracted basis functions         ...  190
 Highest angular momentum                ...    2
 Maximum contraction depth               ...    5
 Integral package used                   ... LIBINT
 Integral threshhold            Thresh   ... 2.500e-011
 Primitive cut-off              TCut     ... 2.500e-012


------------------------------ INTEGRAL EVALUATION ----------------------------


 * One electron integrals 

   ECP integrals                          Pre-screening matrix                    ... done
 Shell pair data                         ... done (   0.001 sec)

Timings:
 Total evaluation time               ...     0.003 sec (   0.000 min)
 One electron matrix time            ...     0.020 sec (   0.000 min) =666.7%
 Schwartz matrix evaluation time     ...     0.091 sec (   0.002 min) =3033.3%

-------------------------------------------------------------------------------
                                 ORCA SCF
-------------------------------------------------------------------------------

------------
SCF SETTINGS
------------
Hamiltonian:
 Density Functional     Method          .... DFT(GTOs)
 Exchange Functional    Exchange        .... PBE
   PBE kappa parameter   XKappa         ....  0.804000
   PBE mue parameter    XMuePBE         ....  0.219520
 Correlation Functional Correlation     .... PBE
   PBE beta parameter  CBetaPBE         ....  0.066725
 LDA part of GGA corr.  LDAOpt          .... PW91-LDA
 Gradients option       PostSCFGGA      .... off
 Hybrid DFT is turned on
   Fraction HF Exchange ScalHFX         ....  0.250000
   Scaling of DF-GGA-X  ScalDFX         ....  0.750000
   Scaling of DF-GGA-C  ScalDFC         ....  1.000000
   Scaling of DF-LDA-C  ScalLDAC        ....  1.000000
   Perturbative correction              ....  0.000000
   NL short-range parameter             ....  6.900000


General Settings:
 Integral files         IntName         .... glutamine
 Hartree-Fock type      HFTyp           .... RHF
 Total Charge           Charge          ....    0
 Multiplicity           Mult            ....    1
 Number of Electrons    NEL             ....   78
 Basis Dimension        Dim             ....  190
 Nuclear Repulsion      ENuc            ....    535.5343288908 Eh

Convergence Acceleration:
 DIIS                   CNVDIIS         .... on
   Start iteration      DIISMaxIt       ....    12
   Startup error        DIISStart       ....  0.200000
   # of expansion vecs  DIISMaxEq       ....     5
   Bias factor          DIISBfac        ....   1.050
   Max. coefficient     DIISMaxC        ....  10.000
 Newton-Raphson         CNVNR           .... off
 SOSCF                  CNVSOSCF        .... on
   Start iteration      SOSCFMaxIt      ....   150
   Startup grad/error   SOSCFStart      ....  0.003300
 Level Shifting         CNVShift        .... on
   Level shift para.    LevelShift      ....    0.2500
   Turn off err/grad.   ShiftErr        ....    0.0010
 Zerner damping         CNVZerner       .... off
 Static damping         CNVDamp         .... on
   Fraction old density DampFac         ....    0.7000
   Max. Damping (<1)    DampMax         ....    0.9800
   Min. Damping (>=0)   DampMin         ....    0.0000
   Turn off err/grad.   DampErr         ....    0.1000
 Fernandez-Rico         CNVRico         .... off

SCF Procedure:
 Maximum # iterations   MaxIter         ....   125
 SCF integral mode      SCFMode         .... Direct
   Integral package                     .... LIBINT
 Reset frequeny         DirectResetFreq ....    20
 Integral Threshold     Thresh          .... 2.500e-011 Eh
 Primitive CutOff       TCut            .... 2.500e-012 Eh

Convergence Tolerance:
 Convergence Check Mode ConvCheckMode   .... Total+1el-Energy
 Convergence forced     ConvForced      .... 0
 Energy Change          TolE            .... 1.000e-008 Eh
 1-El. energy change                    .... 1.000e-005 Eh
 Orbital Gradient       TolG            .... 1.000e-005
 Orbital Rotation angle TolX            .... 1.000e-005
 DIIS Error             TolErr          .... 5.000e-007


Diagonalization of the overlap matrix:
Smallest eigenvalue                        ... 8.734e-004
Time for diagonalization                   ...    0.006 sec
Threshold for overlap eigenvalues          ... 1.000e-008
Number of eigenvalues below threshold      ... 0
Time for construction of square roots      ...    0.003 sec
Total time needed                          ...    0.010 sec

-------------------
DFT GRID GENERATION
-------------------

General Integration Accuracy     IntAcc      ...  4.340
Radial Grid Type                 RadialGrid  ... Gauss-Chebyshev
Angular Grid (max. acc.)         AngularGrid ... Lebedev-110
Angular grid pruning method      GridPruning ... 3 (G Style)
Weight generation scheme         WeightScheme... Becke
Basis function cutoff            BFCut       ...   1.0000e-011
Integration weight cutoff        WCut        ...   1.0000e-014
Grids for H and He will be reduced by one unit

# of grid points (after initial pruning)     ...  24772 (   0.0 sec)
# of grid points (after weights+screening)   ...  22853 (   0.1 sec)
nearest neighbour list constructed           ...    0.0 sec
Grid point re-assignment to atoms done       ...    0.0 sec
Grid point division into batches done        ...    0.0 sec
Reduced shell lists constructed in    0.1 sec

Total number of grid points                  ...    22853
Total number of batches                      ...      368
Average number of points per batch           ...       62
Average number of grid points per atom       ...     1143
Average number of shells per batch           ...    58.27 (64.74%)
Average number of basis functions per batch  ...   118.38 (62.31%)
Average number of large shells per batch     ...    43.45 (74.58%)
Average number of large basis fcns per batch ...    86.73 (73.26%)
Maximum spatial batch extension              ...  19.51, 19.41, 21.16 au
Average spatial batch extension              ...   3.46,  3.57,  3.65 au

Time for grid setup =    0.209 sec

------------------------------
INITIAL GUESS: MODEL POTENTIAL
------------------------------
Loading Hartree-Fock densities                     ... done
Calculating cut-offs                               ... done
Setting up the integral package                    ... done
Initializing the effective Hamiltonian             ... done
Starting the Coulomb interaction                   ... done (   0.1 sec)
Reading the grid                                   ... done
Mapping shells                                     ... done
Starting the XC term evaluation                    ... done (   0.2 sec)
  promolecular density results
     # of electrons  =     77.994313067
     EX              =    -66.032343100
     EC              =     -2.605464034
     EX+EC           =    -68.637807134
Transforming the Hamiltonian                       ... done (   0.0 sec)
Diagonalizing the Hamiltonian                      ... done (   0.0 sec)
Back transforming the eigenvectors                 ... done (   0.0 sec)
Now organizing SCF variables                       ... done
                      ------------------
                      INITIAL GUESS DONE (   0.5 sec)
                      ------------------
--------------
SCF ITERATIONS
--------------
ITER       Energy         Delta-E        Max-DP      RMS-DP      [F,P]     Damp
               ***  Starting incremental Fock matrix formation  ***
  0   -530.3960463025   0.000000000000 0.14059556  0.00329353  0.2595825 0.7000
  1   -530.5771226419  -0.181076339484 0.08923976  0.00208461  0.1046834 0.7000
                               ***Turning on DIIS***
  2   -530.6411663617  -0.064043719719 0.07172922  0.00267908  0.0426009 0.0000
  3   -530.7489391332  -0.107772771539 0.08667569  0.00157541  0.0572984 0.0000
  4   -530.7703524167  -0.021413283516 0.01186704  0.00037122  0.0136824 0.0000
  5   -530.7717669880  -0.001414571297 0.00517978  0.00012173  0.0043401 0.0000
                      *** Initiating the SOSCF procedure ***
                           *** Shutting down DIIS ***
                      *** Re-Reading the Fockian *** 
                      *** Removing any level shift *** 
ITER      Energy       Delta-E        Grad      Rot      Max-DP    RMS-DP
  6   -530.77182306  -0.0000560713  0.000305  0.000305  0.001079  0.000037
               *** Restarting incremental Fock matrix formation ***
  7   -530.77183197  -0.0000089128  0.000145  0.000458  0.000883  0.000027
  8   -530.77183270  -0.0000007294  0.000169  0.000304  0.000350  0.000011
  9   -530.77183327  -0.0000005713  0.000083  0.000148  0.000280  0.000008
 10   -530.77183330  -0.0000000224  0.000054  0.000049  0.000091  0.000003
 11   -530.77183336  -0.0000000671  0.000019  0.000029  0.000062  0.000002
 12   -530.77183337  -0.0000000033  0.000012  0.000010  0.000031  0.000001
                  ***Gradient check signals convergence***
              ***Rediagonalizing the Fockian in SOSCF/NRSCF***

               *****************************************************
               *                     SUCCESS                       *
               *           SCF CONVERGED AFTER  13 CYCLES          *
               *****************************************************

Setting up the final grid:

General Integration Accuracy     IntAcc      ...  4.670
Radial Grid Type                 RadialGrid  ... Gauss-Chebyshev
Angular Grid (max. acc.)         AngularGrid ... Lebedev-302
Angular grid pruning method      GridPruning ... 3 (G Style)
Weight generation scheme         WeightScheme... Becke
Basis function cutoff            BFCut       ...   1.0000e-011
Integration weight cutoff        WCut        ...   1.0000e-014
Grids for H and He will be reduced by one unit

# of grid points (after initial pruning)     ...  96060 (   0.0 sec)
# of grid points (after weights+screening)   ...  87258 (   0.2 sec)
nearest neighbour list constructed           ...    0.0 sec
Grid point re-assignment to atoms done       ...    0.0 sec
Grid point division into batches done        ...    0.2 sec
Reduced shell lists constructed in    0.7 sec

Total number of grid points                  ...    87258
Total number of batches                      ...     1373
Average number of points per batch           ...       63
Average number of grid points per atom       ...     4363
Average number of shells per batch           ...    53.37 (59.30%)
Average number of basis functions per batch  ...   107.67 (56.67%)
Average number of large shells per batch     ...    39.04 (73.15%)
Average number of large basis fcns per batch ...    77.03 (71.54%)
Maximum spatial batch extension              ...  19.04, 19.25, 26.03 au
Average spatial batch extension              ...   2.37,  2.39,  2.45 au

Final grid set up in    0.9 sec
Final integration                            ... done (   0.8 sec)
Change in XC energy                          ...    -0.000412980
Integrated number of electrons               ...    78.000200631
Previous integrated no of electrons          ...    77.998487000

----------------
TOTAL SCF ENERGY
----------------

Total Energy       :         -530.77224635 Eh          -14443.04709 eV

Components:
Nuclear Repulsion  :          535.53432889 Eh           14572.62995 eV
Electronic Energy  :        -1066.30657524 Eh          -29015.67704 eV
One Electron Energy:        -1786.68671466 Eh          -48618.21721 eV
Two Electron Energy:          720.38013941 Eh           19602.54017 eV

Virial components:
Potential Energy   :        -1056.66257763 Eh          -28753.25052 eV
Kinetic Energy     :          525.89033128 Eh           14310.20343 eV
Virial Ratio       :            2.00928314


DFT components:
N(Alpha)           :       39.000100315428 electrons
N(Beta)            :       39.000100315428 electrons
N(Total)           :       78.000200630857 electrons
E(X)               :      -50.346526547056 Eh       
E(C)               :       -2.635616736989 Eh       
E(XC)              :      -52.982143284045 Eh       

---------------
SCF CONVERGENCE
---------------

  Last Energy change         ...  -3.5033e-009  Tolerance :  1.0000e-008
  Last MAX-Density change    ...   8.3297e-006  Tolerance :  1.0000e-007
  Last RMS-Density change    ...   3.3139e-007  Tolerance :  5.0000e-009
  Last Orbital Gradient      ...   1.9859e-006  Tolerance :  1.0000e-005
  Last Orbital Rotation      ...   5.4164e-006  Tolerance :  1.0000e-005

             **** THE GBW FILE WAS UPDATED (glutamine.gbw) ****
             **** DENSITY FILE WAS UPDATED (glutamine.scfp.tmp) ****
             **** ENERGY FILE WAS UPDATED (glutamine.en.tmp) ****
----------------
ORBITAL ENERGIES
----------------

  NO   OCC          E(Eh)            E(eV) 
   0   2.0000     -19.258004      -524.0369 
   1   2.0000     -19.191749      -522.2340 
   2   2.0000     -19.166931      -521.5587 
   3   2.0000     -14.420373      -392.3983 
   4   2.0000     -14.381931      -391.3522 
   5   2.0000     -10.361073      -281.9391 
   6   2.0000     -10.332106      -281.1509 
   7   2.0000     -10.286563      -279.9116 
   8   2.0000     -10.255170      -279.0574 
   9   2.0000     -10.252320      -278.9798 
  10   2.0000      -1.114163       -30.3179 
  11   2.0000      -1.050167       -28.5765 
  12   2.0000      -1.026406       -27.9299 
  13   2.0000      -0.916595       -24.9418 
  14   2.0000      -0.906499       -24.6671 
  15   2.0000      -0.805082       -21.9074 
  16   2.0000      -0.734023       -19.9738 
  17   2.0000      -0.664304       -18.0766 
  18   2.0000      -0.636079       -17.3086 
  19   2.0000      -0.590667       -16.0729 
  20   2.0000      -0.557961       -15.1829 
  21   2.0000      -0.537679       -14.6310 
  22   2.0000      -0.525181       -14.2909 
  23   2.0000      -0.495569       -13.4851 
  24   2.0000      -0.475958       -12.9515 
  25   2.0000      -0.466445       -12.6926 
  26   2.0000      -0.455450       -12.3934 
  27   2.0000      -0.434470       -11.8225 
  28   2.0000      -0.418219       -11.3803 
  29   2.0000      -0.402837       -10.9618 
  30   2.0000      -0.397525       -10.8172 
  31   2.0000      -0.388339       -10.5672 
  32   2.0000      -0.369144       -10.0449 
  33   2.0000      -0.362240        -9.8570 
  34   2.0000      -0.329124        -8.9559 
  35   2.0000      -0.285749        -7.7756 
  36   2.0000      -0.282481        -7.6867 
  37   2.0000      -0.264721        -7.2034 
  38   2.0000      -0.257227        -6.9995 
  39   0.0000       0.008929         0.2430 
  40   0.0000       0.033020         0.8985 
  41   0.0000       0.036487         0.9929 
  42   0.0000       0.051608         1.4043 
  43   0.0000       0.075157         2.0451 
  44   0.0000       0.088810         2.4166 
  45   0.0000       0.098174         2.6715 
  46   0.0000       0.116595         3.1727 
  47   0.0000       0.137988         3.7548 
  48   0.0000       0.148793         4.0489 
  49   0.0000       0.155203         4.2233 
  50   0.0000       0.173292         4.7155 
  51   0.0000       0.204874         5.5749 
  52   0.0000       0.208628         5.6771 
  53   0.0000       0.237736         6.4691 
  54   0.0000       0.241851         6.5811 
  55   0.0000       0.266661         7.2562 
  56   0.0000       0.301707         8.2099 
  57   0.0000       0.361164         9.8278 
  58   0.0000       0.386494        10.5170 
  59   0.0000       0.391365        10.6496 
  60   0.0000       0.414309        11.2739 
  61   0.0000       0.440080        11.9752 
  62   0.0000       0.461893        12.5688 
  63   0.0000       0.475364        12.9353 
  64   0.0000       0.497538        13.5387 
  65   0.0000       0.503048        13.6886 
  66   0.0000       0.519127        14.1262 
  67   0.0000       0.555635        15.1196 
  68   0.0000       0.561346        15.2750 
  69   0.0000       0.588910        16.0251 
  70   0.0000       0.598687        16.2911 
  71   0.0000       0.621386        16.9088 
  72   0.0000       0.628035        17.0897 
  73   0.0000       0.635850        17.3024 
  74   0.0000       0.649858        17.6835 
  75   0.0000       0.654711        17.8156 
  76   0.0000       0.659443        17.9443 
  77   0.0000       0.676409        18.4060 
  78   0.0000       0.677720        18.4417 
  79   0.0000       0.682033        18.5590 
  80   0.0000       0.694350        18.8942 
  81   0.0000       0.713584        19.4176 
  82   0.0000       0.718346        19.5472 
  83   0.0000       0.737061        20.0565 
  84   0.0000       0.758684        20.6448 
  85   0.0000       0.784246        21.3404 
  86   0.0000       0.810153        22.0454 
  87   0.0000       0.814768        22.1710 
  88   0.0000       0.846392        23.0315 
  89   0.0000       0.851071        23.1588 
  90   0.0000       0.874604        23.7992 
  91   0.0000       0.893145        24.3037 
  92   0.0000       0.918274        24.9875 
  93   0.0000       0.954640        25.9771 
  94   0.0000       0.969605        26.3843 
  95   0.0000       1.009300        27.4644 
  96   0.0000       1.032359        28.0919 
  97   0.0000       1.067758        29.0552 
  98   0.0000       1.077096        29.3093 
  99   0.0000       1.087533        29.5933 
 100   0.0000       1.130799        30.7706 
 101   0.0000       1.169262        31.8172 
 102   0.0000       1.193706        32.4824 
 103   0.0000       1.228270        33.4229 
 104   0.0000       1.241501        33.7830 
 105   0.0000       1.244002        33.8510 
 106   0.0000       1.274719        34.6869 
 107   0.0000       1.297625        35.3102 
 108   0.0000       1.313983        35.7553 
 109   0.0000       1.331553        36.2334 
 110   0.0000       1.365710        37.1629 
 111   0.0000       1.387298        37.7503 
 112   0.0000       1.409761        38.3616 
 113   0.0000       1.442593        39.2550 
 114   0.0000       1.453633        39.5554 
 115   0.0000       1.494559        40.6690 
 116   0.0000       1.563813        42.5535 
 117   0.0000       1.588782        43.2330 
 118   0.0000       1.598129        43.4873 
 119   0.0000       1.627965        44.2992 
 120   0.0000       1.650846        44.9218 
 121   0.0000       1.669511        45.4297 
 122   0.0000       1.693898        46.0933 
 123   0.0000       1.698436        46.2168 
 124   0.0000       1.731662        47.1209 
 125   0.0000       1.743251        47.4363 
 126   0.0000       1.765100        48.0308 
 127   0.0000       1.773730        48.2656 
 128   0.0000       1.797423        48.9104 
 129   0.0000       1.809438        49.2373 
 130   0.0000       1.815257        49.3956 
 131   0.0000       1.829684        49.7882 
 132   0.0000       1.861111        50.6434 
 133   0.0000       1.884806        51.2882 
 134   0.0000       1.889279        51.4099 
 135   0.0000       1.891914        51.4816 
 136   0.0000       1.924295        52.3627 
 137   0.0000       1.942346        52.8539 
 138   0.0000       1.972949        53.6867 
 139   0.0000       1.976352        53.7793 
 140   0.0000       2.001136        54.4537 
 141   0.0000       2.053360        55.8748 
 142   0.0000       2.057342        55.9831 
 143   0.0000       2.081250        56.6337 
 144   0.0000       2.089879        56.8685 
 145   0.0000       2.155342        58.6498 
 146   0.0000       2.167372        58.9772 
 147   0.0000       2.206065        60.0301 
 148   0.0000       2.237931        60.8972 
 149   0.0000       2.242372        61.0180 
 150   0.0000       2.290481        62.3272 
 151   0.0000       2.330761        63.4232 
 152   0.0000       2.350348        63.9562 
 153   0.0000       2.389835        65.0307 
 154   0.0000       2.407960        65.5239 
 155   0.0000       2.467333        67.1395 
 156   0.0000       2.530760        68.8655 
 157   0.0000       2.543214        69.2044 
 158   0.0000       2.551999        69.4434 
 159   0.0000       2.556161        69.5567 
 160   0.0000       2.584066        70.3160 
 161   0.0000       2.656302        72.2817 
 162   0.0000       2.710922        73.7679 
 163   0.0000       2.719095        73.9903 
 164   0.0000       2.730670        74.3053 
 165   0.0000       2.752157        74.8900 
 166   0.0000       2.776146        75.5428 
 167   0.0000       2.794552        76.0436 
 168   0.0000       2.803122        76.2768 
 169   0.0000       2.836272        77.1789 
 170   0.0000       2.868717        78.0618 
 171   0.0000       2.876175        78.2647 
 172   0.0000       2.923839        79.5617 
 173   0.0000       2.977788        81.0297 
 174   0.0000       3.006825        81.8199 
 175   0.0000       3.033232        82.5384 
 176   0.0000       3.055108        83.1337 
 177   0.0000       3.067898        83.4817 
 178   0.0000       3.150299        85.7240 
 179   0.0000       3.181317        86.5680 
 180   0.0000       3.189941        86.8027 
 181   0.0000       3.240660        88.1828 
 182   0.0000       3.290598        89.5417 
 183   0.0000       3.322900        90.4207 
 184   0.0000       3.375614        91.8551 
 185   0.0000       3.502880        95.3182 
 186   0.0000       3.560678        96.8910 
 187   0.0000       3.646317        99.2213 
 188   0.0000       3.693296       100.4997 
 189   0.0000       3.825413       104.0948 

                    ********************************
                    * MULLIKEN POPULATION ANALYSIS *
                    ********************************

-----------------------
MULLIKEN ATOMIC CHARGES
-----------------------
   0 C :   -0.066541
   1 C :   -0.058376
   2 C :    0.104858
   3 O :   -0.291002
   4 N :   -0.154014
   5 C :   -0.079326
   6 C :    0.233821
   7 O :   -0.241464
   8 O :   -0.207137
   9 N :   -0.263134
  10 H :    0.062553
  11 H :    0.039985
  12 H :    0.072533
  13 H :    0.049085
  14 H :    0.137896
  15 H :    0.155848
  16 H :    0.045905
  17 H :    0.194568
  18 H :    0.132007
  19 H :    0.131936
Sum of atomic charges:    0.0000000

--------------------------------
MULLIKEN REDUCED ORBITAL CHARGES
--------------------------------
  0 C s       :     3.103318  s :     3.103318
      pz      :     1.012752  p :     2.929523
      px      :     0.895924
      py      :     1.020847
      dz2     :     0.008181  d :     0.033700
      dxz     :     0.004686
      dyz     :     0.005479
      dx2y2   :     0.009121
      dxy     :     0.006233
  1 C s       :     3.011930  s :     3.011930
      pz      :     1.052102  p :     3.014541
      px      :     0.955117
      py      :     1.007322
      dz2     :     0.008358  d :     0.031905
      dxz     :     0.003973
      dyz     :     0.005097
      dx2y2   :     0.009824
      dxy     :     0.004653
  2 C s       :     3.058509  s :     3.058509
      pz      :     0.833849  p :     2.715540
      px      :     1.031342
      py      :     0.850348
      dz2     :     0.022045  d :     0.121093
      dxz     :     0.017628
      dyz     :     0.020411
      dx2y2   :     0.035386
      dxy     :     0.025623
  3 O s       :     3.766185  s :     3.766185
      pz      :     1.429706  p :     4.507220
      px      :     1.641416
      py      :     1.436098
      dz2     :     0.003045  d :     0.017597
      dxz     :     0.002987
      dyz     :     0.003850
      dx2y2   :     0.003254
      dxy     :     0.004461
  4 N s       :     3.327706  s :     3.327706
      pz      :     1.501744  p :     3.812898
      px      :     1.048105
      py      :     1.263050
      dz2     :     0.001858  d :     0.013410
      dxz     :     0.001866
      dyz     :     0.002706
      dx2y2   :     0.003559
      dxy     :     0.003421
  5 C s       :     3.080970  s :     3.080970
      pz      :     0.910855  p :     2.941315
      px      :     1.007300
      py      :     1.023160
      dz2     :     0.012811  d :     0.057042
      dxz     :     0.012103
      dyz     :     0.016373
      dx2y2   :     0.008815
      dxy     :     0.006939
  6 C s       :     3.058540  s :     3.058540
      pz      :     0.800140  p :     2.575887
      px      :     0.833975
      py      :     0.941772
      dz2     :     0.038801  d :     0.131753
      dxz     :     0.027023
      dyz     :     0.030375
      dx2y2   :     0.020450
      dxy     :     0.015104
  7 O s       :     3.761794  s :     3.761794
      pz      :     1.669453  p :     4.461623
      px      :     1.359635
      py      :     1.432535
      dz2     :     0.002183  d :     0.018047
      dxz     :     0.002434
      dyz     :     0.003766
      dx2y2   :     0.004783
      dxy     :     0.004880
  8 O s       :     3.674475  s :     3.674475
      pz      :     1.327128  p :     4.520543
      px      :     1.626380
      py      :     1.567035
      dz2     :     0.004322  d :     0.012120
      dxz     :     0.001872
      dyz     :     0.002547
      dx2y2   :     0.000892
      dxy     :     0.002488
  9 N s       :     3.448932  s :     3.448932
      pz      :     1.216894  p :     3.796886
      px      :     1.134102
      py      :     1.445891
      dz2     :     0.005940  d :     0.017317
      dxz     :     0.002098
      dyz     :     0.002872
      dx2y2   :     0.005605
      dxy     :     0.000801
 10 H s       :     0.915491  s :     0.915491
      pz      :     0.005535  p :     0.021957
      px      :     0.005113
      py      :     0.011309
 11 H s       :     0.937852  s :     0.937852
      pz      :     0.012331  p :     0.022163
      px      :     0.005562
      py      :     0.004270
 12 H s       :     0.904060  s :     0.904060
      pz      :     0.013290  p :     0.023407
      px      :     0.005936
      py      :     0.004181
 13 H s       :     0.928228  s :     0.928228
      pz      :     0.005996  p :     0.022687
      px      :     0.005430
      py      :     0.011261
 14 H s       :     0.817275  s :     0.817275
      pz      :     0.015228  p :     0.044829
      px      :     0.011757
      py      :     0.017844
 15 H s       :     0.800566  s :     0.800566
      pz      :     0.009749  p :     0.043586
      px      :     0.025920
      py      :     0.007917
 16 H s       :     0.933776  s :     0.933776
      pz      :     0.004045  p :     0.020318
      px      :     0.004574
      py      :     0.011700
 17 H s       :     0.735123  s :     0.735123
      pz      :     0.020025  p :     0.070309
      px      :     0.024038
      py      :     0.026247
 18 H s       :     0.824343  s :     0.824343
      pz      :     0.012115  p :     0.043650
      px      :     0.010380
      py      :     0.021154
 19 H s       :     0.824393  s :     0.824393
      pz      :     0.008113  p :     0.043671
      px      :     0.024062
      py      :     0.011496


                     *******************************
                     * LOEWDIN POPULATION ANALYSIS *
                     *******************************

----------------------
LOEWDIN ATOMIC CHARGES
----------------------
   0 C :   -0.034242
   1 C :   -0.074304
   2 C :    0.058940
   3 O :   -0.238794
   4 N :   -0.028382
   5 C :   -0.038517
   6 C :    0.084739
   7 O :   -0.185189
   8 O :   -0.043028
   9 N :   -0.118774
  10 H :    0.042429
  11 H :    0.029184
  12 H :    0.047038
  13 H :    0.040840
  14 H :    0.085086
  15 H :    0.094563
  16 H :    0.034849
  17 H :    0.098243
  18 H :    0.072090
  19 H :    0.073229

-------------------------------
LOEWDIN REDUCED ORBITAL CHARGES
-------------------------------
  0 C s       :     2.852691  s :     2.852691
      pz      :     1.053765  p :     3.097116
      px      :     0.994942
      py      :     1.048408
      dz2     :     0.020159  d :     0.084434
      dxz     :     0.011487
      dyz     :     0.014234
      dx2y2   :     0.023516
      dxy     :     0.015039
  1 C s       :     2.854725  s :     2.854725
      pz      :     1.068799  p :     3.137561
      px      :     1.025447
      py      :     1.043315
      dz2     :     0.020163  d :     0.082018
      dxz     :     0.010204
      dyz     :     0.013370
      dx2y2   :     0.025820
      dxy     :     0.012461
  2 C s       :     2.844398  s :     2.844398
      pz      :     0.866783  p :     2.829032
      px      :     1.035874
      py      :     0.926376
      dz2     :     0.043892  d :     0.267629
      dxz     :     0.037314
      dyz     :     0.047719
      dx2y2   :     0.079806
      dxy     :     0.058898
  3 O s       :     3.554660  s :     3.554660
      pz      :     1.462025  p :     4.653990
      px      :     1.688627
      py      :     1.503338
      dz2     :     0.004013  d :     0.030144
      dxz     :     0.005156
      dyz     :     0.007310
      dx2y2   :     0.004982
      dxy     :     0.008683
  4 N s       :     3.052039  s :     3.052039
      pz      :     1.481668  p :     3.936627
      px      :     1.148537
      py      :     1.306422
      dz2     :     0.004102  d :     0.039716
      dxz     :     0.005621
      dyz     :     0.007346
      dx2y2   :     0.011677
      dxy     :     0.010969
  5 C s       :     2.856818  s :     2.856818
      pz      :     0.963193  p :     3.049623
      px      :     1.037355
      py      :     1.049075
      dz2     :     0.030631  d :     0.132076
      dxz     :     0.024561
      dyz     :     0.038023
      dx2y2   :     0.023577
      dxy     :     0.015284
  6 C s       :     2.871333  s :     2.871333
      pz      :     0.900921  p :     2.756451
      px      :     0.866722
      py      :     0.988808
      dz2     :     0.087345  d :     0.287476
      dxz     :     0.059327
      dyz     :     0.068226
      dx2y2   :     0.038019
      dxy     :     0.034560
  7 O s       :     3.561083  s :     3.561083
      pz      :     1.691105  p :     4.593846
      px      :     1.401385
      py      :     1.501356
      dz2     :     0.003699  d :     0.030260
      dxz     :     0.004308
      dyz     :     0.006440
      dx2y2   :     0.005954
      dxy     :     0.009860
  8 O s       :     3.408454  s :     3.408454
      pz      :     1.379811  p :     4.609537
      px      :     1.625336
      py      :     1.604391
      dz2     :     0.009738  d :     0.025037
      dxz     :     0.004076
      dyz     :     0.005545
      dx2y2   :     0.000835
      dxy     :     0.004843
  9 N s       :     3.147961  s :     3.147961
      pz      :     1.262016  p :     3.931372
      px      :     1.201036
      py      :     1.468320
      dz2     :     0.013486  d :     0.039440
      dxz     :     0.005746
      dyz     :     0.005929
      dx2y2   :     0.012477
      dxy     :     0.001802
 10 H s       :     0.891601  s :     0.891601
      pz      :     0.016294  p :     0.065970
      px      :     0.016128
      py      :     0.033548
 11 H s       :     0.904832  s :     0.904832
      pz      :     0.036634  p :     0.065984
      px      :     0.016854
      py      :     0.012497
 12 H s       :     0.883089  s :     0.883089
      pz      :     0.039048  p :     0.069873
      px      :     0.018156
      py      :     0.012670
 13 H s       :     0.891917  s :     0.891917
      pz      :     0.017158  p :     0.067243
      px      :     0.017239
      py      :     0.032846
 14 H s       :     0.794895  s :     0.794895
      pz      :     0.043377  p :     0.120018
      px      :     0.028324
      py      :     0.048318
 15 H s       :     0.785886  s :     0.785886
      pz      :     0.029476  p :     0.119551
      px      :     0.068867
      py      :     0.021208
 16 H s       :     0.899133  s :     0.899133
      pz      :     0.014415  p :     0.066019
      px      :     0.016323
      py      :     0.035280
 17 H s       :     0.721083  s :     0.721083
      pz      :     0.046271  p :     0.180675
      px      :     0.062200
      py      :     0.072204
 18 H s       :     0.812843  s :     0.812843
      pz      :     0.031854  p :     0.115067
      px      :     0.022310
      py      :     0.060903
 19 H s       :     0.811852  s :     0.811852
      pz      :     0.022256  p :     0.114919
      px      :     0.064397
      py      :     0.028266


                      *****************************
                      * MAYER POPULATION ANALYSIS *
                      *****************************

  NA   - Mulliken gross atomic population
  ZA   - Total nuclear charge
  QA   - Mulliken gross atomic charge
  VA   - Mayer's total valence
  BVA  - Mayer's bonded valence
  FA   - Mayer's free valence

  ATOM       NA         ZA         QA         VA         BVA        FA
  0 C      6.0665     6.0000    -0.0665     4.0414     4.0414    -0.0000
  1 C      6.0584     6.0000    -0.0584     3.8062     3.8062     0.0000
  2 C      5.8951     6.0000     0.1049     4.3351     4.3351    -0.0000
  3 O      8.2910     8.0000    -0.2910     2.2086     2.2086     0.0000
  4 N      7.1540     7.0000    -0.1540     3.1756     3.1756    -0.0000
  5 C      6.0793     6.0000    -0.0793     3.8978     3.8978    -0.0000
  6 C      5.7662     6.0000     0.2338     4.2735     4.2735     0.0000
  7 O      8.2415     8.0000    -0.2415     2.2447     2.2447     0.0000
  8 O      8.2071     8.0000    -0.2071     2.2083     2.2083     0.0000
  9 N      7.2631     7.0000    -0.2631     3.0696     3.0696    -0.0000
 10 H      0.9374     1.0000     0.0626     0.9919     0.9919    -0.0000
 11 H      0.9600     1.0000     0.0400     0.9995     0.9995     0.0000
 12 H      0.9275     1.0000     0.0725     1.0161     1.0161     0.0000
 13 H      0.9509     1.0000     0.0491     0.9889     0.9889     0.0000
 14 H      0.8621     1.0000     0.1379     0.9944     0.9944     0.0000
 15 H      0.8442     1.0000     0.1558     1.0058     1.0058    -0.0000
 16 H      0.9541     1.0000     0.0459     0.9778     0.9778    -0.0000
 17 H      0.8054     1.0000     0.1946     1.0073     1.0073     0.0000
 18 H      0.8680     1.0000     0.1320     0.9999     0.9999     0.0000
 19 H      0.8681     1.0000     0.1319     0.9960     0.9960    -0.0000

  Mayer bond orders larger than 0.1
B(  0-C ,  1-C ) :   1.0790 B(  0-C ,  5-C ) :   1.0256 B(  0-C , 10-H ) :   0.9391 
B(  0-C , 11-H ) :   0.9390 B(  1-C ,  2-C ) :   0.9520 B(  1-C , 12-H ) :   0.9164 
B(  1-C , 13-H ) :   0.9262 B(  2-C ,  3-O ) :   2.0457 B(  2-C ,  4-N ) :   1.2617 
B(  4-N , 14-H ) :   0.9400 B(  4-N , 15-H ) :   0.9294 B(  5-C ,  6-C ) :   0.9103 
B(  5-C ,  9-N ) :   1.0890 B(  5-C , 16-H ) :   0.9007 B(  6-C ,  7-O ) :   2.1179 
B(  6-C ,  8-O ) :   1.1815 B(  8-O , 17-H ) :   0.9414 B(  9-N , 18-H ) :   0.9545 
B(  9-N , 19-H ) :   0.9586 

-------
TIMINGS
-------

Total SCF time: 0 days 0 hours 0 min 50 sec 

Total time                  ....      50.487 sec
Sum of individual times     ....      50.394 sec  ( 99.8%)

Fock matrix formation       ....      48.836 sec  ( 96.7%)
  XC integration            ....       3.802 sec  (  7.8% of F)
    Basis function eval.    ....       1.092 sec  ( 28.7% of XC)
    Density eval.           ....       1.008 sec  ( 26.5% of XC)
    XC-Functional eval.     ....       0.201 sec  (  5.3% of XC)
    XC-Potential eval.      ....       1.236 sec  ( 32.5% of XC)
Diagonalization             ....       0.035 sec  (  0.1%)
Density matrix formation    ....       0.009 sec  (  0.0%)
Population analysis         ....       0.021 sec  (  0.0%)
Initial guess               ....       0.324 sec  (  0.6%)
Orbital Transformation      ....       0.000 sec  (  0.0%)
Orbital Orthonormalization  ....       0.000 sec  (  0.0%)
DIIS solution               ....       0.017 sec  (  0.0%)
SOSCF solution              ....       0.020 sec  (  0.0%)
Grid generation             ....       1.132 sec  (  2.2%)

-------------------------   --------------------
FINAL SINGLE POINT ENERGY      -530.772246349643
-------------------------   --------------------

------------------------------------------------------------------------------
                         ORCA SCF GRADIENT CALCULATION
------------------------------------------------------------------------------

Gradient of the Kohn-Sham DFT energy:
Kohn-Sham wavefunction type      ... RKS
Hartree-Fock exchange scaling    ...    0.250
Number of operators              ...    1
Number of atoms                  ...   20
Basis set dimensions             ...  190
Integral neglect threshold       ... 2.5e-011
Integral primitive cutoff        ... 2.5e-012

Nuclear repulsion gradient       ... done
One Electron Gradient            
  ECP gradient                   ... done
Pre-screening matrix             ... done
Starting the two electron gradient:
Two electron gradient done
Exchange-correlation gradient    ... done

------------------
CARTESIAN GRADIENT
------------------

   1   C   :    0.001966790    0.008970736   -0.001102900
   2   C   :   -0.005487307    0.000539184   -0.003053553
   3   C   :    0.021867139   -0.021800526    0.016248542
   4   O   :   -0.005343789    0.001246646   -0.000802800
   5   N   :   -0.008423308    0.025107589   -0.017179897
   6   C   :    0.003479396   -0.000674101   -0.017674427
   7   C   :   -0.022448335   -0.026886747   -0.004634679
   8   O   :    0.022108830    0.024146899    0.019414346
   9   O   :   -0.005174153   -0.007943485   -0.000838707
  10   N   :   -0.005886085   -0.001789998    0.005019036
  11   H   :   -0.000954086    0.005736977    0.006085732
  12   H   :    0.000607164   -0.004499322   -0.007409468
  13   H   :   -0.002726113    0.003821957    0.007081720
  14   H   :   -0.000325626   -0.002646793   -0.006006472
  15   H   :    0.011237147   -0.010926696    0.007504855
  16   H   :   -0.017901897   -0.003818245    0.002398590
  17   H   :    0.001376267   -0.002868362   -0.001443190
  18   H   :   -0.000210975    0.004643178   -0.015786472
  19   H   :   -0.011984956    0.016677262    0.013645651
  20   H   :    0.024223899   -0.007036154   -0.001465906

Difference to translation invariance:
           :   -0.0000000000   -0.0000000000   -0.0000000000

Norm of the cartesian gradient     ...    0.0893288056
RMS gradient                       ...    0.0115322992
MAX gradient                       ...    0.0268867466

-------
TIMINGS
-------

Total SCF gradient time            ...       18.364 sec

One electron gradient       ....       0.137 sec  (  0.7%)
Prescreening matrices       ....       0.076 sec  (  0.4%)
Two electron gradient       ....      13.511 sec  ( 73.6%)
XC gradient                 ....       4.545 sec  ( 24.7%)
------------------------------------------------------------------------------
                         ORCA GEOMETRY RELAXATION STEP
------------------------------------------------------------------------------

Reading the OPT-File                    .... done
Getting information on internals        .... done
Copying old internal coords+grads       .... done
Making the new internal coordinates     .... (new redundants).... done
Validating the new internal coordinates .... (new redundants).... done
Calculating the B-matrix                .... done
Calculating the G,G- and P matrices     .... done
Transforming gradient to internals      .... done
Projecting the internal gradient        .... done
Number of atoms                         ....  20
Number of internal coordinates          ....  92
Current Energy                          ....  -530.772246350 Eh
Current gradient norm                   ....     0.089328806 Eh/bohr
Maximum allowed component of the step   ....  0.300
Current trust radius                    ....  0.300
Evaluating the initial hessian          ....  (Almloef) done
Projecting the Hessian                  .... done
Forming the augmented Hessian           .... done
Diagonalizing the augmented Hessian     .... done
Last element of RFO vector              ....  0.976785328
Lowest eigenvalues of augmented Hessian:
 -0.015102615  0.010247164  0.010460054  0.011171869  0.011892044
Length of the computed step             ....  0.219311750
The final length of the internal step   ....  0.219311750
Converting the step to cartesian space:
 Initial RMS(Int)=    0.0228648306
Transforming coordinates:
 Iter   0:  RMS(Cart)=    0.0576748135 RMS(Int)=    0.6545799131
 Iter   1:  RMS(Cart)=    0.0018411814 RMS(Int)=    0.0013949765
 Iter   2:  RMS(Cart)=    0.0002008764 RMS(Int)=    0.0000922344
 Iter   3:  RMS(Cart)=    0.0000212575 RMS(Int)=    0.0000178046
 Iter   4:  RMS(Cart)=    0.0000026006 RMS(Int)=    0.0000013688
 Iter   5:  RMS(Cart)=    0.0000002871 RMS(Int)=    0.0000002365
 Iter   6:  RMS(Cart)=    0.0000000354 RMS(Int)=    0.0000000203
done
Storing new coordinates                 .... done

                                .--------------------.
          ----------------------|Geometry convergence|-------------------------
          Item                value                   Tolerance       Converged
          ---------------------------------------------------------------------
          RMS gradient        0.0085071604            0.0001000000      NO
          MAX gradient        0.0377282942            0.0003000000      NO
          RMS step            0.0228648306            0.0020000000      NO
          MAX step            0.0752407492            0.0040000000      NO
          ........................................................
          Max(Bonds)      0.0329      Max(Angles)    4.31
          Max(Dihed)        2.84      Max(Improp)    0.00
          ---------------------------------------------------------------------

The optimization has not yet converged - more geometry cycles are needed


    ---------------------------------------------------------------------------
                         Redundant Internal Coordinates
                            (Angstroem and degrees)

        Definition                    Value    dE/dq     Step     New-Value
    ----------------------------------------------------------------------------
     1. B(C   1,C   0)                1.5393  0.012347 -0.0174    1.5219   
     2. B(C   2,C   1)                1.5112 -0.001072  0.0014    1.5126   
     3. B(O   3,C   2)                1.2231  0.004118 -0.0021    1.2210   
     4. B(N   4,C   2)                1.3526 -0.004048  0.0033    1.3559   
     5. B(C   5,C   0)                1.5422  0.005497 -0.0078    1.5344   
     6. B(C   6,C   5)                1.5202 -0.005474  0.0072    1.5274   
     7. B(O   7,C   6)                1.2218  0.037728 -0.0190    1.2029   
     8. B(O   8,C   6)                1.3508  0.017197 -0.0138    1.3370   
     9. B(N   9,C   5)                1.4673  0.018734 -0.0227    1.4445   
    10. B(H  10,C   0)                1.1129  0.007628 -0.0117    1.1012   
    11. B(H  11,C   0)                1.1116  0.007068 -0.0108    1.1009   
    12. B(H  12,C   1)                1.1112  0.006061 -0.0092    1.1020   
    13. B(H  13,C   1)                1.1115  0.004545 -0.0069    1.1046   
    14. B(H  14,N   4)                1.0306  0.017155 -0.0218    1.0088   
    15. B(H  15,N   4)                1.0309  0.018077 -0.0230    1.0079   
    16. B(H  16,C   5)                1.1122  0.003487 -0.0053    1.1069   
    17. B(H  17,O   8)                0.9669  0.004131 -0.0042    0.9627   
    18. B(H  18,N   9)                1.0466  0.023653 -0.0318    1.0148   
    19. B(H  19,N   9)                1.0462  0.024468 -0.0329    1.0134   
    20. A(C   1,C   0,C   5)          112.19  0.002498   -0.13    112.06   
    21. A(H  10,C   0,H  11)          108.48  0.002738   -1.15    107.33   
    22. A(C   1,C   0,H  10)          109.32 -0.001204    0.12    109.44   
    23. A(C   5,C   0,H  10)          109.24 -0.000671    0.04    109.28   
    24. A(C   5,C   0,H  11)          109.35 -0.002389    0.72    110.07   
    25. A(C   1,C   0,H  11)          108.19 -0.000929    0.35    108.55   
    26. A(C   0,C   1,C   2)          112.97  0.006485   -0.76    112.21   
    27. A(H  12,C   1,H  13)          108.70  0.003864   -1.29    107.41   
    28. A(C   2,C   1,H  13)          108.49 -0.001878    0.40    108.89   
    29. A(C   0,C   1,H  13)          109.15 -0.003328    0.56    109.71   
    30. A(C   2,C   1,H  12)          107.98 -0.004518    1.01    108.98   
    31. A(C   0,C   1,H  12)          109.47 -0.000609    0.04    109.51   
    32. A(C   1,C   2,N   4)          119.75  0.021571   -2.83    116.92   
    33. A(C   1,C   2,O   3)          120.82 -0.006492    0.95    121.76   
    34. A(O   3,C   2,N   4)          119.44 -0.015079    1.89    121.32   
    35. A(H  14,N   4,H  15)          118.80 -0.000652    0.11    118.91   
    36. A(C   2,N   4,H  15)          120.55  0.006653   -1.03    119.52   
    37. A(C   2,N   4,H  14)          120.65 -0.006001    0.92    121.57   
    38. A(C   6,C   5,H  16)          107.83  0.000621   -0.44    107.39   
    39. A(C   0,C   5,H  16)          108.86  0.000319   -0.58    108.28   
    40. A(C   0,C   5,C   6)          110.38  0.001732   -0.10    110.28   
    41. A(C   6,C   5,N   9)          111.31 -0.003389    1.14    112.45   
    42. A(C   0,C   5,N   9)          110.03 -0.000527    0.39    110.42   
    43. A(N   9,C   5,H  16)          108.33  0.001335   -0.46    107.87   
    44. A(C   5,C   6,O   7)          120.62 -0.013585    1.80    122.42   
    45. A(O   7,C   6,O   8)          118.75 -0.002117    0.31    119.06   
    46. A(C   5,C   6,O   8)          120.62  0.015693   -2.09    118.53   
    47. A(C   6,O   8,H  17)          122.11  0.029063   -4.31    117.80   
    48. A(H  18,N   9,H  19)          109.16  0.003498   -2.10    107.06   
    49. A(C   5,N   9,H  19)          109.88 -0.001642   -0.39    109.49   
    50. A(C   5,N   9,H  18)          110.50  0.004391   -1.39    109.11   
    51. D(H  13,C   1,C   0,H  11)     61.82 -0.002182    0.98     62.80   
    52. D(H  13,C   1,C   0,H  10)    179.78 -0.000106   -0.13    179.64   
    53. D(C   2,C   1,C   0,H  10)     59.00  0.000350   -0.54     58.46   
    54. D(H  13,C   1,C   0,C   5)    -58.89 -0.000140   -0.08    -58.97   
    55. D(H  12,C   1,C   0,C   5)     59.98  0.002211   -1.29     58.69   
    56. D(C   2,C   1,C   0,H  11)    -58.96 -0.001726    0.57    -58.38   
    57. D(H  12,C   1,C   0,H  11)   -179.31  0.000169   -0.23   -179.54   
    58. D(H  12,C   1,C   0,H  10)    -61.36  0.002246   -1.34    -62.70   
    59. D(C   2,C   1,C   0,C   5)   -179.66  0.000315   -0.49   -180.15   
    60. D(N   4,C   2,C   1,H  12)    -58.49 -0.000361    0.50    -57.99   
    61. D(O   3,C   2,C   1,H  13)   -120.94  0.000739   -0.28   -121.22   
    62. D(O   3,C   2,C   1,H  12)    121.42 -0.000351    0.48    121.90   
    63. D(O   3,C   2,C   1,C   0)      0.21 -0.000583    0.22      0.43   
    64. D(N   4,C   2,C   1,H  13)     59.15  0.000729   -0.26     58.89   
    65. D(N   4,C   2,C   1,C   0)   -179.70 -0.000593    0.24   -179.46   
    66. D(H  15,N   4,C   2,O   3)     -0.01  0.000056   -0.06     -0.08   
    67. D(H  15,N   4,C   2,C   1)    179.90  0.000072   -0.09    179.82   
    68. D(H  14,N   4,C   2,O   3)   -179.90 -0.000089    0.11   -179.79   
    69. D(H  14,N   4,C   2,C   1)      0.02 -0.000072    0.08      0.10   
    70. D(H  16,C   5,C   0,H  11)    -60.44  0.000804   -0.65    -61.08   
    71. D(H  16,C   5,C   0,C   1)     59.60 -0.000371    0.21     59.80   
    72. D(N   9,C   5,C   0,H  11)   -179.02 -0.000701    0.04   -178.98   
    73. D(N   9,C   5,C   0,H  10)     62.41 -0.002219    0.98     63.39   
    74. D(N   9,C   5,C   0,C   1)    -58.98 -0.001876    0.89    -58.09   
    75. D(C   6,C   5,C   0,H  11)     57.73  0.002769   -1.59     56.14   
    76. D(H  16,C   5,C   0,H  10)   -179.01 -0.000714    0.30   -178.72   
    77. D(C   6,C   5,C   0,C   1)    177.77  0.001594   -0.74    177.03   
    78. D(C   6,C   5,C   0,H  10)    -60.84  0.001251   -0.65    -61.49   
    79. D(O   7,C   6,C   5,H  16)   -121.41  0.000828   -0.73   -122.14   
    80. D(O   7,C   6,C   5,N   9)     -2.71  0.000875   -0.91     -3.62   
    81. D(O   7,C   6,C   5,C   0)    119.78 -0.000921    0.30    120.08   
    82. D(O   8,C   6,C   5,H  16)     57.83 -0.000010    0.85     58.68   
    83. D(O   8,C   6,C   5,N   9)    176.52  0.000037    0.67    177.20   
    84. D(O   8,C   6,C   5,C   0)    -60.98 -0.001759    1.88    -59.10   
    85. D(H  17,O   8,C   6,O   7)    178.22 -0.001146    1.64    179.86   
    86. D(H  17,O   8,C   6,C   5)     -1.03 -0.000234    0.08     -0.95   
    87. D(H  19,N   9,C   5,H  16)     58.19 -0.003263    1.67     59.86   
    88. D(H  19,N   9,C   5,C   6)    -60.21 -0.002863    1.83    -58.38   
    89. D(H  19,N   9,C   5,C   0)    177.09 -0.002382    0.91    178.01   
    90. D(H  18,N   9,C   5,H  16)    178.70  0.002839   -2.09    176.62   
    91. D(H  18,N   9,C   5,C   6)     60.31  0.003239   -1.93     58.38   
    92. D(H  18,N   9,C   5,C   0)    -62.39  0.003720   -2.84    -65.23   
    ----------------------------------------------------------------------------

         *************************************************************
         *                GEOMETRY OPTIMIZATION CYCLE   2            *
         *************************************************************
---------------------------------
CARTESIAN COORDINATES (ANGSTROEM)
---------------------------------
  C      0.922555    0.029766    0.091355
  C      0.363735   -1.148437    0.876052
  C     -1.148666   -1.170256    0.875067
  O     -1.803337   -0.321900    0.289735
  N     -1.748456   -2.176610    1.557684
  C      2.456814    0.050678    0.097662
  C      2.973884    1.203842   -0.760127
  O      3.660981    2.083409   -0.311619
  O      2.633937    1.240495   -2.052662
  N      2.954435    0.104909    1.452695
  H      0.544361    0.969780    0.522613
  H      0.549803   -0.029917   -0.942774
  H      0.720857   -1.099785    1.917456
  H      0.735343   -2.094292    0.443076
  H     -1.211334   -2.877711    2.045144
  H     -2.754698   -2.227287    1.585162
  H      2.818718   -0.890034   -0.359776
  H      2.085378    0.526321   -2.392997
  H      2.679741    0.987279    1.871936
  H      3.967528    0.084618    1.441381

----------------------------
CARTESIAN COORDINATES (A.U.)
----------------------------
  NO LB      ZA    FRAG     MASS         X           Y           Z
   0 C     6.0000    0    12.011    1.743377    0.056250    0.172636
   1 C     6.0000    0    12.011    0.687360   -2.170231    1.655498
   2 C     6.0000    0    12.011   -2.170664   -2.211463    1.653636
   3 O     8.0000    0    15.999   -3.407814   -0.608302    0.547519
   4 N     7.0000    0    14.007   -3.304103   -4.113196    2.943595
   5 C     6.0000    0    12.011    4.642705    0.095768    0.184554
   6 C     6.0000    0    12.011    5.619827    2.274932   -1.436432
   7 O     8.0000    0    15.999    6.918252    3.937072   -0.588875
   8 O     8.0000    0    15.999    4.977419    2.344197   -3.878970
   9 N     7.0000    0    14.007    5.583072    0.198250    2.745196
  10 H     1.0000    0     1.008    1.028694    1.832618    0.987595
  11 H     1.0000    0     1.008    1.038977   -0.056534   -1.781585
  12 H     1.0000    0     1.008    1.362222   -2.078293    3.623466
  13 H     1.0000    0     1.008    1.389597   -3.957638    0.837292
  14 H     1.0000    0     1.008   -2.289090   -5.438086    3.864763
  15 H     1.0000    0     1.008   -5.205625   -4.208962    2.995522
  16 H     1.0000    0     1.008    5.326606   -1.681920   -0.679878
  17 H     1.0000    0     1.008    3.940793    0.994603   -4.522109
  18 H     1.0000    0     1.008    5.063977    1.865686    3.537446
  19 H     1.0000    0     1.008    7.497542    0.159905    2.723815

--------------------------------
INTERNAL COORDINATES (ANGSTROEM)
--------------------------------
 C      0   0   0     0.000000000000     0.00000000     0.00000000
 C      1   0   0     1.521903762046     0.00000000     0.00000000
 C      2   1   0     1.512558657843   112.20850696     0.00000000
 O      3   2   1     1.221030780327   121.76233530     0.43066848
 N      3   2   1     1.355899031191   116.91628538   180.53673271
 C      1   2   3     1.534413924809   112.06014550   179.84986817
 C      6   1   2     1.527399801529   110.27198186   177.03294908
 O      7   6   1     1.202871332222   122.41407071   120.08176643
 O      7   6   1     1.336994917464   118.52536628   300.90351033
 N      6   1   2     1.444535457924   110.41497564   301.90935816
 H      1   2   3     1.101199101673   109.43998459    58.46358098
 H      1   2   3     1.100877036366   108.54461381   301.61860953
 H      2   1   3     1.102009450412   109.51642677   238.83727305
 H      2   1   3     1.104627544764   109.71046518   121.18084935
 H      5   3   2     1.008791907235   121.57183934     0.10149056
 H      5   3   2     1.007892318096   119.51659608   179.81787441
 H      6   1   2     1.106870753487   108.27916919    59.80446537
 H      9   7   6     0.962698948880   117.79504390   359.06084547
 H     10   6   1     1.014788098297   109.08246922   294.77488319
 H     10   6   1     1.013360287602   109.46126965   177.98871454

---------------------------
INTERNAL COORDINATES (A.U.)
---------------------------
 C      0   0   0     0.000000000000     0.00000000     0.00000000
 C      1   0   0     2.875981312451     0.00000000     0.00000000
 C      2   1   0     2.858321624814   112.20850696     0.00000000
 O      3   2   1     2.307413775906   121.76233530     0.43066848
 N      3   2   1     2.562277834201   116.91628538   180.53673271
 C      1   2   3     2.899622093964   112.06014550   179.84986817
 C      6   1   2     2.886367321896   110.27198186   177.03294908
 O      7   6   1     2.273097392244   122.41407071   120.08176643
 O      7   6   1     2.526554236452   118.52536628   300.90351033
 N      6   1   2     2.729776406216   110.41497564   301.90935816
 H      1   2   3     2.080964721082   109.43998459    58.46358098
 H      1   2   3     2.080356105854   108.54461381   301.61860953
 H      2   1   3     2.082496058271   109.51642677   238.83727305
 H      2   1   3     2.087443539589   109.71046518   121.18084935
 H      5   3   2     1.906340430790   121.57183934     0.10149056
 H      5   3   2     1.904640453685   119.51659608   179.81787441
 H      6   1   2     2.091682589737   108.27916919    59.80446537
 H      9   7   6     1.819237362798   117.79504390   359.06084547
 H     10   6   1     1.917671589744   109.08246922   294.77488319
 H     10   6   1     1.914973418560   109.46126965   177.98871454


Diagonalization of the overlap matrix:
Smallest eigenvalue                        ... 8.581e-004
Time for diagonalization                   ...    0.007 sec
Threshold for overlap eigenvalues          ... 1.000e-008
Number of eigenvalues below threshold      ... 0
Time for construction of square roots      ...    0.003 sec
Total time needed                          ...    0.010 sec

-------------------
DFT GRID GENERATION
-------------------

General Integration Accuracy     IntAcc      ...  4.340
Radial Grid Type                 RadialGrid  ... Gauss-Chebyshev
Angular Grid (max. acc.)         AngularGrid ... Lebedev-110
Angular grid pruning method      GridPruning ... 3 (G Style)
Weight generation scheme         WeightScheme... Becke
Basis function cutoff            BFCut       ...   1.0000e-011
Integration weight cutoff        WCut        ...   1.0000e-014
Grids for H and He will be reduced by one unit

# of grid points (after initial pruning)     ...  24772 (   0.0 sec)
# of grid points (after weights+screening)   ...  22829 (   0.1 sec)
nearest neighbour list constructed           ...    0.0 sec
Grid point re-assignment to atoms done       ...    0.0 sec
Grid point division into batches done        ...    0.0 sec
Reduced shell lists constructed in    0.1 sec

Total number of grid points                  ...    22829
Total number of batches                      ...      369
Average number of points per batch           ...       61
Average number of grid points per atom       ...     1141
Average number of shells per batch           ...    58.66 (65.18%)
Average number of basis functions per batch  ...   119.37 (62.83%)
Average number of large shells per batch     ...    43.88 (74.80%)
Average number of large basis fcns per batch ...    87.60 (73.38%)
Maximum spatial batch extension              ...  18.94, 25.18, 20.89 au
Average spatial batch extension              ...   3.46,  3.66,  3.69 au

Time for grid setup =    0.194 sec

--------------
SCF ITERATIONS
--------------
ITER       Energy         Delta-E        Max-DP      RMS-DP      [F,P]     Damp
               ***  Starting incremental Fock matrix formation  ***
  0   -530.7764018978   0.000000000000 0.01101067  0.00022687  0.0274386 0.7000
                      *** Initiating the SOSCF procedure ***
                      *** Re-Reading the Fockian *** 
                      *** Removing any level shift *** 
ITER      Energy       Delta-E        Grad      Rot      Max-DP    RMS-DP
  1   -530.77779715  -0.0013952560  0.001465  0.001465  0.031996  0.000642
               *** Restarting incremental Fock matrix formation ***
  2   -530.78124643  -0.0034492767  0.001015  0.001471  0.006656  0.000175
  3   -530.78125953  -0.0000131015  0.001251  0.001771  0.004747  0.000100
  4   -530.78134673  -0.0000872028  0.000543  0.001199  0.001498  0.000050
  5   -530.78134258   0.0000041526  0.000589  0.000663  0.001021  0.000027
  6   -530.78135251  -0.0000099317  0.000049  0.000070  0.000371  0.000007
  7   -530.78135254  -0.0000000245  0.000044  0.000046  0.000187  0.000003
[...]
     29       0.001408   0.011499  -0.000522   0.000073   0.000240  -0.000462
     30       0.021038  -0.028661  -0.043683   0.184389   0.178869   0.190261
     31      -0.005711  -0.014860   0.116963  -0.470661  -0.459536  -0.471593
     32      -0.013024   0.007887   0.061076  -0.257502  -0.252036  -0.242497
     33       0.079765   0.009177  -0.000659   0.142569   0.177949  -0.307112
     34       0.037052   0.009076  -0.004050   0.007918   0.007482   0.004523
     35      -0.010858  -0.021278   0.001534   0.351269   0.429692  -0.710483
     36      -0.217250  -0.004776   0.000077  -0.046978   0.048193   0.063718
     37      -0.004258  -0.009922   0.000344  -0.018172   0.018476   0.011048
     38       0.015511   0.001732  -0.000169  -0.231023   0.228115   0.251105
     39      -0.033964  -0.000667   0.006735  -0.296810   0.279357  -0.016289
     40       0.008756   0.003756  -0.019001   0.559500  -0.528662   0.022898
     41      -0.028027  -0.000994  -0.005584   0.251926  -0.235614   0.007840
     42      -0.027498   0.006546   0.000082   0.001008  -0.001768  -0.000888
     43       0.037455   0.001399   0.000101  -0.000378   0.000851  -0.000771
     44      -0.093218  -0.000799  -0.000043   0.000213  -0.000788   0.000574
     45       0.011062  -0.002548  -0.000052  -0.001507   0.001814  -0.000085
     46      -0.180347   0.001448   0.000132  -0.000312   0.000674   0.000148
     47       0.353528  -0.003480   0.000133  -0.001700   0.001030   0.000787
     48      -0.011606   0.043871   0.290529   0.025598   0.021060   0.027155
     49      -0.007405   0.055317  -0.804958  -0.076212  -0.051018  -0.066001
     50       0.005174  -0.059762  -0.490541  -0.044410  -0.030281  -0.041086
     51       0.003531   0.064970  -0.003179   0.000383   0.000264  -0.004014
     52      -0.009436  -0.140230   0.002382   0.002025   0.002507  -0.004003
     53       0.010512   0.347380  -0.000850   0.002938   0.004811  -0.009132
     54      -0.007178  -0.051478  -0.002375  -0.001512  -0.002048  -0.003313
     55      -0.000734  -0.023807   0.015775   0.000689   0.000059   0.000560
     56       0.001532   0.026308   0.002798  -0.001710  -0.001422  -0.001162
     57      -0.001329  -0.004032  -0.001030  -0.000353  -0.000892   0.000463
     58      -0.007282  -0.062683  -0.001592  -0.000878  -0.000433  -0.000888
     59      -0.010614  -0.002550   0.004831  -0.000318  -0.000272  -0.000373
                 54         55         56         57         58         59    
      0       0.002497  -0.000069  -0.000315   0.000038  -0.000047   0.000517
      1       0.011594  -0.000124   0.000216  -0.000042   0.000085  -0.000035
      2       0.020655   0.000105   0.000181  -0.000141  -0.000092   0.000995
      3       0.006432  -0.000026  -0.000038  -0.000591   0.000294  -0.000145
      4       0.024261   0.000000  -0.000080   0.000204  -0.000100  -0.000043
      5       0.083458   0.000099   0.000022  -0.000270  -0.000090  -0.000205
      6      -0.001303   0.000058   0.000006  -0.001171  -0.001413   0.000014
      7      -0.000471   0.000001   0.000001  -0.001129  -0.000293  -0.000083
      8       0.001127   0.000011   0.000013   0.001692  -0.000097   0.000188
      9      -0.000213  -0.000015   0.000006   0.000288   0.000203  -0.000002
     10       0.000344   0.000004   0.000012  -0.000318  -0.000210   0.000028
     11      -0.000500  -0.000019  -0.000005   0.000808   0.000482  -0.000093
     12       0.000053   0.000007  -0.000009   0.033432  -0.069171   0.000030
     13       0.000123   0.000011  -0.000020   0.025846   0.008767   0.000054
     14      -0.000494  -0.000002   0.000023  -0.033900  -0.051590  -0.000103
     15      -0.000401  -0.000050   0.000931   0.000013   0.000001   0.000228
     16       0.000785   0.002447  -0.000691   0.000006  -0.000018   0.000225
     17       0.001001  -0.001009  -0.001354  -0.000004   0.000042   0.000236
     18       0.000247   0.000099  -0.000099   0.000041  -0.000002  -0.001906
     19       0.000164   0.000093   0.000029   0.000054   0.000006  -0.002188
     20       0.000225  -0.000206   0.000100  -0.000000   0.000005  -0.000296
     21      -0.000139  -0.000155   0.000044  -0.000022  -0.000006   0.000916
     22      -0.000123  -0.000001  -0.000001  -0.000029  -0.000007   0.000798
     23      -0.000083  -0.000193  -0.000072  -0.000005  -0.000000   0.000601
     24      -0.000080  -0.000010   0.000090   0.000040   0.000013  -0.043621
     25       0.000005   0.000049   0.000126   0.000041   0.000013  -0.042332
     26       0.000007  -0.000110  -0.000031   0.000019  -0.000003  -0.012783
     27       0.000127   0.026744   0.065969   0.000002  -0.000002   0.000012
     28       0.000088   0.045213  -0.037649  -0.000042   0.000008  -0.000225
     29      -0.000237   0.027456  -0.021404  -0.000042  -0.000014   0.000097
     30       0.048983   0.000722  -0.000926  -0.000063   0.000034  -0.000330
     31      -0.130322   0.001496  -0.000745  -0.000030  -0.000040  -0.000580
     32      -0.066840   0.000744  -0.000697   0.000117  -0.000022  -0.002164
     33      -0.075859   0.000044  -0.000095   0.000903   0.000422  -0.005947
     34       0.002796  -0.000138   0.000244   0.000341   0.000047  -0.000751
     35      -0.182657  -0.001549  -0.000827   0.000784   0.000771  -0.004968
     36      -0.211386   0.000151  -0.000440  -0.000395   0.000698   0.000793
     37      -0.033931   0.000134  -0.000361  -0.000898  -0.000339   0.000801
     38      -0.882639  -0.000679  -0.000355   0.003726   0.001633  -0.000003
     39       0.144640   0.000088   0.000019   0.000696  -0.000428   0.000109
     40      -0.267337  -0.000106   0.000259  -0.001639   0.000886  -0.000080
     41      -0.106237   0.000012   0.000135  -0.000389   0.000317   0.000246
     42       0.003816   0.000179  -0.000222   0.297931   0.352962   0.000358
     43       0.001520  -0.000020   0.000149  -0.195990  -0.238049  -0.000223
     44       0.002266   0.000129  -0.000415   0.530762   0.639341   0.000683
     45      -0.000734  -0.000385   0.000492  -0.747573   0.618406  -0.000592
     46       0.000063  -0.000083   0.000093  -0.144522   0.122952  -0.000120
     47      -0.002016  -0.000049   0.000064  -0.091665   0.070140   0.000012
     48       0.006863   0.003620  -0.004008  -0.000010   0.000013   0.000764
     49      -0.011939  -0.009602   0.006634   0.000046  -0.000019  -0.000370
     50      -0.008099  -0.004959   0.005461   0.000013  -0.000012  -0.000394
     51      -0.000793   0.000119  -0.001510  -0.000622  -0.000175   0.699372
     52      -0.000693  -0.000032  -0.001631  -0.000692  -0.000198   0.685968
     53      -0.002281   0.000234  -0.000505  -0.000395  -0.000016   0.190743
     54      -0.001192   0.168115  -0.083523  -0.000055  -0.000024   0.000050
     55       0.000248  -0.713598   0.470747   0.000594  -0.000090   0.001339
     56       0.000106  -0.399598   0.250881   0.000387   0.000036   0.000312
     57       0.000979  -0.541658  -0.834346  -0.000369  -0.000124  -0.001935
     58       0.000132   0.063908   0.052129  -0.000111  -0.000062   0.000494
     59      -0.000922   0.041258   0.057438   0.000078   0.000051  -0.000511


-----------
IR SPECTRUM
-----------

 Mode    freq (cm**-1)   T**2         TX         TY         TZ
-------------------------------------------------------------------
   6:        40.68   15.485541  (  2.262473  -2.710945  -1.737106)
   7:        45.92    7.308302  ( -2.528862   0.056421   0.953928)
   8:        64.07    3.307764  ( -0.159051   1.787314   0.296607)
   9:       100.98    3.588613  ( -1.391019  -0.761877   1.035964)
  10:       128.37    2.731909  ( -1.262638  -1.057508  -0.139033)
  11:       204.45   40.779717  (  5.829622  -2.455806  -0.874207)
  12:       242.05    7.163657  ( -1.254012   0.500717  -2.310929)
  13:       260.26    2.980071  ( -1.001042  -0.536032  -1.300252)
  14:       284.61  194.355105  ( -3.342741  12.050948   6.160831)
  15:       320.76   22.829155  (  0.693987   0.784680  -4.661739)
  16:       407.77   30.052636  ( -4.762992   2.435691   1.197476)
  17:       444.35    4.256653  ( -0.421347   0.483330   1.960998)
  18:       509.28   67.132970  ( -5.891780   3.653779   4.366897)
  19:       514.57    1.537825  (  0.968930   0.635916   0.441146)
  20:       537.00   16.982988  (  0.491068  -3.916564  -1.184216)
  21:       608.88   26.194143  ( -4.832439   0.089004   1.683377)
  22:       664.12   14.277920  ( -1.798138  -2.548667  -2.132819)
  23:       686.52    3.285851  (  0.050249  -1.809426   0.096459)
  24:       741.69    5.190949  (  1.557346  -0.721552   1.498328)
  25:       805.18    5.925136  ( -0.127751   2.008822   1.368740)
  26:       867.95   13.162210  ( -1.317896  -1.777067   2.875307)
  27:       898.80   33.060158  (  1.028863  -3.773863   4.214209)
  28:       945.64   38.033744  (  0.018583   3.993805  -4.699247)
  29:       988.98   98.100060  (  0.209646  -3.537604   9.248863)
  30:      1024.87    6.212458  ( -1.104486   0.858336  -2.062966)
  31:      1089.66    2.167101  (  1.382384   0.424705   0.275211)
  32:      1109.92    3.641451  (  0.921844   0.513602  -1.589927)
  33:      1133.99    2.168315  ( -0.761132   0.631249  -1.091108)
  34:      1174.70    1.229580  (  0.924551  -0.321312  -0.521099)
  35:      1207.98   22.132735  (  2.112914   0.154480   4.200532)
  36:      1232.64   12.763675  ( -0.755851  -1.380824   3.207131)
  37:      1267.56   53.619182  (  3.198947  -0.746850   6.544321)
  38:      1283.48   37.701648  ( -2.116960   2.060302  -5.382870)
  39:      1326.30   85.734495  (  2.810671   4.796215  -7.404792)
  40:      1353.68  182.982790  (  0.183548   4.091903 -12.892069)
  41:      1386.97   63.944937  (  4.449027  -0.048144   6.644455)
  42:      1413.04   35.360005  (  2.133190   2.719686  -4.838679)
  43:      1434.38   67.398973  ( -7.852840  -1.916995   1.434224)
  44:      1443.27   16.092004  (  2.748502   2.207436  -1.914411)
  45:      1460.54   21.183352  (  3.736175  -1.336075   2.332221)
  46:      1597.15  172.086564  (  9.418283   5.924238  -6.948806)
  47:      1651.34   24.028991  (  2.751516   3.153102   2.552665)
  48:      1847.41  302.711959  (  3.543052  -7.381360  15.351686)
  49:      1920.34  285.288689  (-12.076363 -10.625918  -5.151700)
  50:      3021.40   14.470369  ( -0.960968   2.067175   3.045275)
  51:      3052.35    0.504401  ( -0.313221   0.574602  -0.275910)
  52:      3059.49   24.962157  ( -0.064275   4.841576  -1.231735)
  53:      3108.49   12.399228  ( -1.805778   0.716090   2.936939)
  54:      3140.74   11.117414  ( -0.825875   0.051598   3.229966)
  55:      3529.28    5.529491  ( -1.531338  -1.636300  -0.712050)
  56:      3606.10    8.487856  ( -2.443553   1.437843   0.670455)
  57:      3627.73   56.173322  ( -4.732681  -3.617911   4.548162)
  58:      3771.66   54.650618  (  5.938240  -0.715025   4.344728)
  59:      3849.49   70.690949  (  6.379043   5.186770   1.759593)

The first frequency considered to be a vibration is 6
The total number of vibrations considered is 54


--------------------------
THERMOCHEMISTRY AT 298.15K
--------------------------

Temperature         ... 298.15 K
Pressure            ... 1.00 atm
Total Mass          ... 146.15 AMU

Throughout the following assumptions are being made:
  (1) The electronic state is orbitally nondegenerate
  (2) There are no thermally accessible electronically excited states
  (3) Hindered rotations indicated by low frequency modes are not
      treated as such but are treated as vibrations and this may
      cause some error
  (4) All equations used are the standard statistical mechanics
      equations for an ideal gas
  (5) All vibrations are strictly harmonic

freq.      40.68  E(vib)   ...       0.54 
freq.      45.92  E(vib)   ...       0.53 
freq.      64.07  E(vib)   ...       0.51 
freq.     100.98  E(vib)   ...       0.46 
freq.     128.37  E(vib)   ...       0.43 
freq.     204.45  E(vib)   ...       0.35 
freq.     242.05  E(vib)   ...       0.31 
freq.     260.26  E(vib)   ...       0.30 
freq.     284.61  E(vib)   ...       0.28 
freq.     320.76  E(vib)   ...       0.25 
freq.     407.77  E(vib)   ...       0.19 
freq.     444.35  E(vib)   ...       0.17 
freq.     509.28  E(vib)   ...       0.14 
freq.     514.57  E(vib)   ...       0.13 
freq.     537.00  E(vib)   ...       0.12 
freq.     608.88  E(vib)   ...       0.10 
freq.     664.12  E(vib)   ...       0.08 
freq.     686.52  E(vib)   ...       0.07 
freq.     741.69  E(vib)   ...       0.06 
freq.     805.18  E(vib)   ...       0.05 
freq.     867.95  E(vib)   ...       0.04 
freq.     898.80  E(vib)   ...       0.03 
freq.     945.64  E(vib)   ...       0.03 
freq.     988.98  E(vib)   ...       0.02 
freq.    1024.87  E(vib)   ...       0.02 
freq.    1089.66  E(vib)   ...       0.02 
freq.    1109.92  E(vib)   ...       0.02 
freq.    1133.99  E(vib)   ...       0.01 
freq.    1174.70  E(vib)   ...       0.01 
freq.    1207.98  E(vib)   ...       0.01 
freq.    1232.64  E(vib)   ...       0.01 
freq.    1267.56  E(vib)   ...       0.01 
freq.    1283.48  E(vib)   ...       0.01 
freq.    1326.30  E(vib)   ...       0.01 
freq.    1353.68  E(vib)   ...       0.01 
freq.    1386.97  E(vib)   ...       0.00 
freq.    1413.04  E(vib)   ...       0.00 
freq.    1434.38  E(vib)   ...       0.00 
freq.    1443.27  E(vib)   ...       0.00 
freq.    1460.54  E(vib)   ...       0.00 
freq.    1597.15  E(vib)   ...       0.00 
freq.    1651.34  E(vib)   ...       0.00 
freq.    1847.41  E(vib)   ...       0.00 
freq.    1920.34  E(vib)   ...       0.00 
freq.    3021.40  E(vib)   ...       0.00 
freq.    3052.35  E(vib)   ...       0.00 
freq.    3059.49  E(vib)   ...       0.00 
freq.    3108.49  E(vib)   ...       0.00 
freq.    3140.74  E(vib)   ...       0.00 
freq.    3529.28  E(vib)   ...       0.00 
freq.    3606.10  E(vib)   ...       0.00 
freq.    3627.73  E(vib)   ...       0.00 
freq.    3771.66  E(vib)   ...       0.00 
freq.    3849.49  E(vib)   ...       0.00 

------------
INNER ENERGY
------------

The inner energy is: U= E(el) + E(ZPE) + E(vib) + E(rot) + E(trans)
    E(el)   - is the total energy from the electronic structure calculation
              = E(kin-el) + E(nuc-el) + E(el-el) + E(nuc-nuc)
    E(ZPE)  - the the zero temperature vibrational energy from the frequency calculation
    E(vib)  - the the finite temperature correction to E(ZPE) due to population
              of excited vibrational states
    E(rot)  - is the rotational thermal energy
    E(trans)- is the translational thermal energy

Summary of contributions to the inner energy U:
Electronic energy                ...   -530.78477809 Eh
Zero point energy                ...      0.16502787 Eh     103.56 kcal/mol
Thermal vibrational correction   ...      0.00849035 Eh       5.33 kcal/mol
Thermal rotational correction    ...      0.00141627 Eh       0.89 kcal/mol
Thermal translational correction ...      0.00141627 Eh       0.89 kcal/mol
-----------------------------------------------------------------------
Total thermal energy                   -530.60842732 Eh


Summary of corrections to the electronic energy:
(perhaps to be used in another calculation)
Total thermal correction                  0.01132290 Eh       7.11 kcal/mol
Non-thermal (ZPE) correction              0.16502787 Eh     103.56 kcal/mol
-----------------------------------------------------------------------
Total correction                          0.17635076 Eh     110.66 kcal/mol


--------
ENTHALPY
--------

The enthalpy is H = U + kB*T
                kB is Boltzmann's constant
Total free energy                 ...   -530.60842732 Eh 
Thermal Enthalpy correction       ...      0.00094421 Eh       0.59 kcal/mol
-----------------------------------------------------------------------
Total Enthalpy                    ...   -530.60748311 Eh


Vibrational entropy computed according to the QRRHO of S. Grimme
Chem.Eur.J. 2012 18 9955

check  

-------
ENTROPY
-------

The entropy contributions are T*S = T*(S(el)+S(vib)+S(rot)+S(trans)
     S(el)   - electronic entropy
     S(vib)  - vibrational entropy
     S(rot)  - rotational entropy
     S(trans)- translational entropy
The entropies will be listed as mutliplied by the temperature to get
units of energy

Electronic entropy                ...      0.00000000 Eh      0.00 kcal/mol
Vibrational entropy               ...      0.01500279 Eh      9.41 kcal/mol
Rotational entropy                ...      0.01336072 Eh      8.38 kcal/mol
Translational entropy             ...      0.01940863 Eh     12.18 kcal/mol
-----------------------------------------------------------------------
Final entropy term                ...      0.04777214 Eh     29.98 kcal/mol


CAUTION: The rotational entropy is not quite correctly treated here
         because it includes a symmetry number that is not yet correctly
         implemented in ORCA!
For a nonlinear molecule the correct rotational entropy is:
    S(rot) = R*(ln(qrot/sn)+1.5)
    R    = 8.31441 J/mol/K = 1.987191683e-3 kcal/mol/K
    qrot = 935848.6330651
    sn is the rotational symmetry number. We have assumed 3 here
       if it is different for your molecule then you should correct
       the printed rotational entropy by manually evaluating the equation
       as given above

For convenience we print out the resulting values for sn=1 - 12:
 sn= 1  qrot/sn=  935848.6331 T*S(rot)=     9.03 kcal/mol T*S(tot)=    30.63 kcal/mol
 sn= 2  qrot/sn=  467924.3165 T*S(rot)=     8.62 kcal/mol T*S(tot)=    30.22 kcal/mol
 sn= 3  qrot/sn=  311949.5444 T*S(rot)=     8.38 kcal/mol T*S(tot)=    29.98 kcal/mol
 sn= 4  qrot/sn=  233962.1583 T*S(rot)=     8.21 kcal/mol T*S(tot)=    29.81 kcal/mol
 sn= 5  qrot/sn=  187169.7266 T*S(rot)=     8.08 kcal/mol T*S(tot)=    29.67 kcal/mol
 sn= 6  qrot/sn=  155974.7722 T*S(rot)=     7.97 kcal/mol T*S(tot)=    29.57 kcal/mol
 sn= 7  qrot/sn=  133692.6619 T*S(rot)=     7.88 kcal/mol T*S(tot)=    29.48 kcal/mol
 sn= 8  qrot/sn=  116981.0791 T*S(rot)=     7.80 kcal/mol T*S(tot)=    29.40 kcal/mol
 sn= 9  qrot/sn=  103983.1815 T*S(rot)=     7.73 kcal/mol T*S(tot)=    29.33 kcal/mol
 sn=10  qrot/sn=   93584.8633 T*S(rot)=     7.67 kcal/mol T*S(tot)=    29.26 kcal/mol
 sn=11  qrot/sn=   85077.1485 T*S(rot)=     7.61 kcal/mol T*S(tot)=    29.21 kcal/mol
 sn=12  qrot/sn=   77987.3861 T*S(rot)=     7.56 kcal/mol T*S(tot)=    29.16 kcal/mol


-------------------
GIBBS FREE ENTHALPY
-------------------

The Gibbs free enthalpy is G = H - T*S

Total enthalpy                    ...   -530.60748311 Eh 
Total entropy correction          ...     -0.04777214 Eh    -29.98 kcal/mol
-----------------------------------------------------------------------
Final Gibbs free enthalpy         ...   -530.65525525 Eh

For completeness - the Gibbs free enthalpy minus the electronic energy
G-E(el)                           ...      0.12952284 Eh     81.28 kcal/mol


Timings for individual modules:

Sum of individual times         ...     4229.636 sec (=  70.494 min)
GTO integral calculation        ...        8.041 sec (=   0.134 min)   0.2 %
SCF iterations                  ...      703.762 sec (=  11.729 min)  16.6 %
SCF Gradient evaluation         ...      363.917 sec (=   6.065 min)   8.6 %
Geometry relaxation             ...        5.940 sec (=   0.099 min)   0.1 %
Analytical frequency calculation...     3147.976 sec (=  52.466 min)  74.4 %
                             ****ORCA TERMINATED NORMALLY****
TOTAL RUN TIME: 0 days 1 hours 10 minutes 34 seconds 297 msec
