
                                 *****************
                                 * O   R   C   A *
                                 *****************

           --- An Ab Initio, DFT and Semiempirical electronic structure package ---

                  #######################################################
                  #                        -***-                        #
                  #  Department of molecular theory and spectroscopy    #
                  #              Directorship: Frank Neese              #
                  # Max Planck Institute for Chemical Energy Conversion #
                  #                  D-45470 Muelheim/Ruhr              #
                  #                       Germany                       #
                  #                                                     #
                  #                  All rights reserved                #
                  #                        -***-                        #
                  #######################################################


                         Program Version 4.0.0 -  RELEASE  -


 With contributions from (in alphabetic order):
   Daniel Aravena         : Magnetic Properties
   Michael Atanasov       : Ab Initio Ligand Field Theory
   Ute Becker             : Parallelization
   Martin Brehm           : Molecular dynamics
   Dmytro Bykov           : SCF Hessian
   Vijay G. Chilkuri      : MRCI spin determinant printing
   Dipayan Datta          : RHF DLPNO-CCSD density
   Achintya Kumar Dutta   : EOM-CC, STEOM-CC
   Dmitry Ganyushin       : Spin-Orbit,Spin-Spin,Magnetic field MRCI
   Yang Guo               : DLPNO-NEVPT2, CIM, IAO-localization
   Andreas Hansen         : Spin unrestricted coupled pair/coupled cluster methods
   Lee Huntington         : MR-EOM, pCC
   Robert Izsak           : Overlap fitted RIJCOSX, COSX-SCS-MP3, EOM
   Christian Kollmar      : KDIIS, OOCD, Brueckner-CCSD(T), CCSD density
   Simone Kossmann        : Meta GGA functionals, TD-DFT gradient, OOMP2, MP2 Hessian
   Martin Krupicka        : AUTO-CI
   Dagmar Lenk            : GEPOL surface
   Dimitrios Liakos       : Extrapolation schemes; parallel MDCI
   Dimitrios Manganas     : ROCIS; embedding schemes
   Dimitrios Pantazis     : SARC Basis sets
   Taras Petrenko         : DFT Hessian,TD-DFT gradient, ASA, ECA, R-Raman, ABS, FL, XAS/XES, NRVS
   Peter Pinski           : DLPNO-MP2
   Christoph Reimann      : Effective Core Potentials
   Marius Retegan         : Local ZFS, SOC
   Christoph Riplinger    : Optimizer, TS searches, QM/MM, DLPNO-CCSD(T), (RO)-DLPNO pert. Triples
   Tobias Risthaus        : Range-separated hybrids, TD-DFT gradient, RPA, STAB
   Michael Roemelt        : Restricted open shell CIS
   Masaaki Saitow         : Open-shell DLPNO
   Barbara Sandhoefer     : DKH picture change effects
   Kantharuban Sivalingam : CASSCF convergence, NEVPT2, FIC-MRCI
   Georgi Stoychev        : AutoAux
   Boris Wezisla          : Elementary symmetry handling
   Frank Wennmohs         : Technical directorship


 We gratefully acknowledge several colleagues who have allowed us to
 interface, adapt or use parts of their codes:
   Stefan Grimme, W. Hujo, H. Kruse,             : VdW corrections, initial TS optimization,
                  C. Bannwarth                     DFT functionals, gCP, sTDA/sTD-DF
   Ed Valeev                                     : LibInt (2-el integral package), F12 methods
   Garnet Chan, S. Sharma, J. Yang, R. Olivares  : DMRG
   Ulf Ekstrom                                   : XCFun DFT Library
   Mihaly Kallay                                 : mrcc  (arbitrary order and MRCC methods)
   Jiri Pittner, Ondrej Demel                    : Mk-CCSD
   Frank Weinhold                                : gennbo (NPA and NBO analysis)
   Christopher J. Cramer and Donald G. Truhlar   : smd solvation model


 Your calculation uses the libint2 library for the computation of 2-el integrals
 For citations please refer to: http://libint.valeyev.net

 This ORCA versions uses:
   CBLAS   interface :  Fast vector & matrix operations
   LAPACKE interface :  Fast linear algebra routines




*****************************************
The coordinations will be read from file: threonine.xyz
*****************************************


Your calculation utilizes the basis: def2-SVP
   F. Weigend and R. Ahlrichs, Phys. Chem. Chem. Phys. 7, 3297 (2005).

================================================================================
                                        WARNINGS
                       Please study these warnings very carefully!
================================================================================

Warning: TCutStore was < 0. Adjusted to Thresh (uncritical)

WARNING: Geometry Optimization
  ===> : Switching off AutoStart
         For restart on a previous wavefunction, please use MOREAD

INFO   : the flag for use of LIBINT has been found!

================================================================================
                                       INPUT FILE
================================================================================
NAME = threonine.inp
|  1> ! PBE0
|  2> ! opt anfreq
|  3> * xyzfile 0 1 threonine.xyz **                         ****END OF INPUT****
================================================================================

                       *****************************
                       * Geometry Optimization Run *
                       *****************************

Geometry optimization settings:
Update method            Update   .... BFGS
Choice of coordinates    CoordSys .... Redundant Internals
Initial Hessian          InHess   .... Almoef's Model

Convergence Tolerances:
Energy Change            TolE     .... 5.0000e-006 Eh
Max. Gradient            TolMAXG  .... 3.0000e-004 Eh/bohr
RMS Gradient             TolRMSG  .... 1.0000e-004 Eh/bohr
Max. Displacement        TolMAXD  .... 4.0000e-003 bohr
RMS Displacement         TolRMSD  .... 2.0000e-003 bohr

------------------------------------------------------------------------------
                        ORCA OPTIMIZATION COORDINATE SETUP
------------------------------------------------------------------------------

The optimization will be done in new redundant internal coordinates
Making redundant internal coordinates   ...  (new redundants) done
Evaluating the initial hessian          ...  (Almloef) done
Evaluating the coordinates              ...  done
Calculating the B-matrix                .... done
Calculating the G-matrix                .... done
Diagonalizing the G-matrix              .... done
The first mode is                       ....   32
The number of degrees of freedom        ....   45

    -----------------------------------------------------------------
                    Redundant Internal Coordinates


    -----------------------------------------------------------------
         Definition                    Initial Value    Approx d2E/dq
    -----------------------------------------------------------------
      1. B(C   1,C   0)                  1.5367         0.364549   
      2. B(C   2,C   1)                  1.5539         0.342116   
      3. B(C   3,C   2)                  1.5248         0.380753   
      4. B(O   4,C   3)                  1.2219         1.037764   
      5. B(O   5,C   3)                  1.3509         0.646125   
      6. B(N   6,C   2)                  1.4681         0.420050   
      7. B(O   7,C   1)                  1.4052         0.529220   
      8. B(H   8,C   0)                  1.1102         0.334300   
      9. B(H   9,C   0)                  1.1109         0.333439   
     10. B(H  10,C   0)                  1.1106         0.333820   
     11. B(H  11,C   1)                  1.1121         0.332003   
     12. B(H  12,C   2)                  1.1123         0.331722   
     13. B(H  13,O   5)                  0.9657         0.509252   
     14. B(H  14,N   6)                  1.0464         0.378550   
     15. B(H  15,N   6)                  1.0461         0.378909   
     16. B(H  16,O   7)                  0.9936         0.459626   
     17. A(H   8,C   0,H   9)          108.8201         0.284046   
     18. A(C   1,C   0,H  10)          109.7119         0.319040   
     19. A(C   1,C   0,H   8)          110.9268         0.319115   
     20. A(C   1,C   0,H   9)          110.5561         0.318981   
     21. A(H   8,C   0,H  10)          108.0178         0.284096   
     22. A(H   9,C   0,H  10)          108.7414         0.283983   
     23. A(C   0,C   1,C   2)          112.2550         0.356459   
     24. A(C   2,C   1,O   7)          111.5805         0.377607   
     25. A(C   2,C   1,H  11)          108.3791         0.315477   
     26. A(O   7,C   1,H  11)          107.6627         0.336924   
     27. A(C   0,C   1,H  11)          107.3857         0.318756   
     28. A(C   0,C   1,O   7)          109.3793         0.381786   
     29. A(C   3,C   2,N   6)          110.7183         0.369618   
     30. A(C   1,C   2,N   6)          109.4847         0.362904   
     31. A(C   1,C   2,C   3)          111.8477         0.359104   
     32. A(N   6,C   2,H  12)          107.8051         0.324248   
     33. A(C   3,C   2,H  12)          107.8924         0.320985   
     34. A(C   1,C   2,H  12)          108.9806         0.315434   
     35. A(C   2,C   3,O   4)          120.2995         0.433366   
     36. A(O   4,C   3,O   5)          118.3952         0.473960   
     37. A(C   2,C   3,O   5)          121.2853         0.398346   
     38. A(C   3,O   5,H  13)          122.7844         0.371422   
     39. A(H  14,N   6,H  15)          109.2058         0.290716   
     40. A(C   2,N   6,H  15)          109.9953         0.328612   
     41. A(C   2,N   6,H  14)          110.6177         0.328560   
     42. A(C   1,O   7,H  16)          107.5901         0.352755   
     43. D(H  11,C   1,C   0,H   8)    -59.1852         0.010644   
     44. D(C   2,C   1,C   0,H   8)     59.8350         0.010644   
     45. D(C   2,C   1,C   0,H   9)    -60.9798         0.010644   
     46. D(O   7,C   1,C   0,H   8)   -175.7473         0.010644   
     47. D(H  11,C   1,C   0,H   9)    180.0000         0.010644   
     48. D(O   7,C   1,C   0,H  10)    -56.4870         0.010644   
     49. D(O   7,C   1,C   0,H   9)     63.4378         0.010644   
     50. D(H  11,C   1,C   0,H  10)     60.0751         0.010644   
     51. D(C   2,C   1,C   0,H  10)    179.0953         0.010644   
     52. D(N   6,C   2,C   1,O   7)   -178.7199         0.009466   
     53. D(N   6,C   2,C   1,C   0)    -55.5303         0.009466   
     54. D(C   3,C   2,C   1,H  11)    -60.1990         0.009466   
     55. D(C   3,C   2,C   1,O   7)     58.1760         0.009466   
     56. D(N   6,C   2,C   1,H  11)     62.9052         0.009466   
     57. D(C   3,C   2,C   1,C   0)   -178.6344         0.009466   
     58. D(H  12,C   2,C   1,H  11)   -179.4040         0.009466   
     59. D(H  12,C   2,C   1,O   7)    -61.0291         0.009466   
     60. D(H  12,C   2,C   1,C   0)     62.1606         0.009466   
     61. D(O   5,C   3,C   2,H  12)     56.0234         0.010815   
     62. D(O   5,C   3,C   2,N   6)    173.7755         0.010815   
     63. D(O   5,C   3,C   2,C   1)    -63.8222         0.010815   
     64. D(O   4,C   3,C   2,H  12)   -122.3206         0.010815   
     65. D(O   4,C   3,C   2,N   6)     -4.5684         0.010815   
     66. D(O   4,C   3,C   2,C   1)    117.8338         0.010815   
     67. D(H  13,O   5,C   3,O   4)    175.6451         0.030824   
     68. D(H  13,O   5,C   3,C   2)     -2.7295         0.030824   
     69. D(H  15,N   6,C   2,C   1)    176.1023         0.015045   
     70. D(H  14,N   6,C   2,H  12)    178.4034         0.015045   
     71. D(H  14,N   6,C   2,C   3)     60.5979         0.015045   
     72. D(H  15,N   6,C   2,C   3)    -60.1273         0.015045   
     73. D(H  14,N   6,C   2,C   1)    -63.1725         0.015045   
     74. D(H  15,N   6,C   2,H  12)     57.6782         0.015045   
     75. D(H  16,O   7,C   1,H  11)   -178.1890         0.022238   
     76. D(H  16,O   7,C   1,C   2)     63.0083         0.022238   
     77. D(H  16,O   7,C   1,C   0)    -61.8025         0.022238   
    -----------------------------------------------------------------

Number of atoms                         .... 17
Number of degrees of freedom            .... 77

         *************************************************************
         *                GEOMETRY OPTIMIZATION CYCLE   1            *
         *************************************************************
---------------------------------
CARTESIAN COORDINATES (ANGSTROEM)
---------------------------------
  C      0.965900    0.095420    0.048000
  C      2.502300    0.119470    0.033450
  C      3.083820   -0.266620   -1.354900
  C      4.608620   -0.272250   -1.349790
  O      5.222030   -1.304900   -1.574190
  O      5.313580    0.859370   -1.132310
  N      2.560950   -1.578090   -1.757290
  O      2.952790    1.383970    0.448980
  H      0.582740   -0.915940   -0.202930
  H      0.557410    0.825070   -0.683390
  H      0.596670    0.361030    1.061220
  H      2.853400   -0.626010    0.780300
  H      2.747350    0.479420   -2.108240
  H      4.894870    1.720890   -1.009960
  H      2.875340   -2.320550   -1.090310
  H      2.894730   -1.816310   -2.719710
  H      2.613560    2.052700   -0.202870

----------------------------
CARTESIAN COORDINATES (A.U.)
----------------------------
  NO LB      ZA    FRAG     MASS         X           Y           Z
   0 C     6.0000    0    12.011    1.825286    0.180318    0.090707
   1 C     6.0000    0    12.011    4.728662    0.225766    0.063211
   2 C     6.0000    0    12.011    5.827575   -0.503839   -2.560390
   3 C     6.0000    0    12.011    8.709030   -0.514478   -2.550733
   4 O     8.0000    0    15.999    9.868207   -2.465904   -2.974788
   5 O     8.0000    0    15.999   10.041211    1.623974   -2.139756
   6 N     7.0000    0    14.007    4.839494   -2.982158   -3.320797
   7 O     8.0000    0    15.999    5.579964    2.615324    0.848449
   8 H     1.0000    0     1.008    1.101219   -1.730876   -0.383482
   9 H     1.0000    0     1.008    1.053352    1.559156   -1.291420
  10 H     1.0000    0     1.008    1.127543    0.682248    2.005415
  11 H     1.0000    0     1.008    5.392145   -1.182987    1.474553
  12 H     1.0000    0     1.008    5.191739    0.905973   -3.983996
  13 H     1.0000    0     1.008    9.249964    3.252011   -1.908548
  14 H     1.0000    0     1.008    5.433605   -4.385204   -2.060387
  15 H     1.0000    0     1.008    5.470247   -3.432328   -5.139507
  16 H     1.0000    0     1.008    4.938913    3.879041   -0.383369

--------------------------------
INTERNAL COORDINATES (ANGSTROEM)
--------------------------------
 C      0   0   0     0.000000000000     0.00000000     0.00000000
 C      1   0   0     1.536657107165     0.00000000     0.00000000
 C      2   1   0     1.553945533473   112.25503849     0.00000000
 C      3   2   1     1.524818956139   111.84767139   181.36561206
 O      4   3   2     1.221881013274   120.29948026   117.83383744
 O      4   3   2     1.350862678587   121.28525178   296.17777525
 N      3   2   1     1.468081847139   109.48466050   304.46974987
 O      2   1   3     1.405192752259   109.37926144   124.41765811
 H      1   2   3     1.110237136877   110.92678396    59.83502697
 H      1   2   3     1.110938582776   110.55605533   299.02016137
 H      1   2   3     1.110627855494   109.71192371   179.09530844
 H      2   1   3     1.112113556657   107.38568815   240.97980807
 H      3   2   1     1.112343875832   108.98055557    62.16055739
 H      6   4   3     0.965662620691   122.78442547   357.27051096
 H      7   3   2     1.046398702264   110.61769481   296.82753436
 H      7   3   2     1.046140580037   109.99530126   176.10234865
 H      8   2   1     0.993571954264   107.59007010   298.19746247

---------------------------
INTERNAL COORDINATES (A.U.)
---------------------------
 C      0   0   0     0.000000000000     0.00000000     0.00000000
 C      1   0   0     2.903861094285     0.00000000     0.00000000
 C      2   1   0     2.936531485294   112.25503849     0.00000000
 C      3   2   1     2.881490230914   111.84767139   181.36561206
 O      4   3   2     2.309020483326   120.29948026   117.83383744
 O      4   3   2     2.552760507065   121.28525178   296.17777525
 N      3   2   1     2.774272633275   109.48466050   304.46974987
 O      2   1   3     2.655429467140   109.37926144   124.41765811
 H      1   2   3     2.098044132406   110.92678396    59.83502697
 H      1   2   3     2.099369673053   110.55605533   299.02016137
 H      1   2   3     2.098782483589   109.71192371   179.09530844
 H      2   1   3     2.101590051903   107.38568815   240.97980807
 H      3   2   1     2.102025292066   108.98055557    62.16055739
 H      6   4   3     1.824837890871   122.78442547   357.27051096
 H      7   3   2     1.977406974170   110.61769481   296.82753436
 H      7   3   2     1.976919193851   109.99530126   176.10234865
 H      8   2   1     1.877578887904   107.59007010   298.19746247

---------------------
BASIS SET INFORMATION
---------------------
There are 4 groups of distinct atoms

 Group   1 Type C   : 7s4p1d contracted to 3s2p1d pattern {511/31/1}
 Group   2 Type O   : 7s4p1d contracted to 3s2p1d pattern {511/31/1}
 Group   3 Type N   : 7s4p1d contracted to 3s2p1d pattern {511/31/1}
 Group   4 Type H   : 4s1p contracted to 2s1p pattern {31/1}

Atom   0C    basis set group =>   1
Atom   1C    basis set group =>   1
Atom   2C    basis set group =>   1
Atom   3C    basis set group =>   1
Atom   4O    basis set group =>   2
Atom   5O    basis set group =>   2
Atom   6N    basis set group =>   3
Atom   7O    basis set group =>   2
Atom   8H    basis set group =>   4
Atom   9H    basis set group =>   4
Atom  10H    basis set group =>   4
Atom  11H    basis set group =>   4
Atom  12H    basis set group =>   4
Atom  13H    basis set group =>   4
Atom  14H    basis set group =>   4
Atom  15H    basis set group =>   4
Atom  16H    basis set group =>   4
-------------------------
ECP PARAMETER INFORMATION
-------------------------



------------------------------------------------------------------------------
                           ORCA GTO INTEGRAL CALCULATION
------------------------------------------------------------------------------

                         BASIS SET STATISTICS AND STARTUP INFO

 # of primitive gaussian shells          ...  141
 # of primitive gaussian functions       ...  255
 # of contracted shells                  ...   75
 # of contracted basis functions         ...  157
 Highest angular momentum                ...    2
 Maximum contraction depth               ...    5
 Integral package used                   ... LIBINT
 Integral threshhold            Thresh   ... 2.500e-011
 Primitive cut-off              TCut     ... 2.500e-012


------------------------------ INTEGRAL EVALUATION ----------------------------


 * One electron integrals 

   ECP integrals                          Pre-screening matrix                    ... done
 Shell pair data                         ... done (   0.000 sec)

Timings:
 Total evaluation time               ...     0.003 sec (   0.000 min)
 One electron matrix time            ...     0.016 sec (   0.000 min) =533.3%
 Schwartz matrix evaluation time     ...     0.078 sec (   0.001 min) =2600.0%

-------------------------------------------------------------------------------
                                 ORCA SCF
-------------------------------------------------------------------------------

------------
SCF SETTINGS
------------
Hamiltonian:
 Density Functional     Method          .... DFT(GTOs)
 Exchange Functional    Exchange        .... PBE
   PBE kappa parameter   XKappa         ....  0.804000
   PBE mue parameter    XMuePBE         ....  0.219520
 Correlation Functional Correlation     .... PBE
   PBE beta parameter  CBetaPBE         ....  0.066725
 LDA part of GGA corr.  LDAOpt          .... PW91-LDA
 Gradients option       PostSCFGGA      .... off
 Hybrid DFT is turned on
   Fraction HF Exchange ScalHFX         ....  0.250000
   Scaling of DF-GGA-X  ScalDFX         ....  0.750000
   Scaling of DF-GGA-C  ScalDFC         ....  1.000000
   Scaling of DF-LDA-C  ScalLDAC        ....  1.000000
   Perturbative correction              ....  0.000000
   NL short-range parameter             ....  6.900000


General Settings:
 Integral files         IntName         .... threonine
 Hartree-Fock type      HFTyp           .... RHF
 Total Charge           Charge          ....    0
 Multiplicity           Mult            ....    1
 Number of Electrons    NEL             ....   64
 Basis Dimension        Dim             ....  157
 Nuclear Repulsion      ENuc            ....    406.9296171131 Eh

Convergence Acceleration:
 DIIS                   CNVDIIS         .... on
   Start iteration      DIISMaxIt       ....    12
   Startup error        DIISStart       ....  0.200000
   # of expansion vecs  DIISMaxEq       ....     5
   Bias factor          DIISBfac        ....   1.050
   Max. coefficient     DIISMaxC        ....  10.000
 Newton-Raphson         CNVNR           .... off
 SOSCF                  CNVSOSCF        .... on
   Start iteration      SOSCFMaxIt      ....   150
   Startup grad/error   SOSCFStart      ....  0.003300
 Level Shifting         CNVShift        .... on
   Level shift para.    LevelShift      ....    0.2500
   Turn off err/grad.   ShiftErr        ....    0.0010
 Zerner damping         CNVZerner       .... off
 Static damping         CNVDamp         .... on
   Fraction old density DampFac         ....    0.7000
   Max. Damping (<1)    DampMax         ....    0.9800
   Min. Damping (>=0)   DampMin         ....    0.0000
   Turn off err/grad.   DampErr         ....    0.1000
 Fernandez-Rico         CNVRico         .... off

SCF Procedure:
 Maximum # iterations   MaxIter         ....   125
 SCF integral mode      SCFMode         .... Direct
   Integral package                     .... LIBINT
 Reset frequeny         DirectResetFreq ....    20
 Integral Threshold     Thresh          .... 2.500e-011 Eh
 Primitive CutOff       TCut            .... 2.500e-012 Eh

Convergence Tolerance:
 Convergence Check Mode ConvCheckMode   .... Total+1el-Energy
 Convergence forced     ConvForced      .... 0
 Energy Change          TolE            .... 1.000e-008 Eh
 1-El. energy change                    .... 1.000e-005 Eh
 Orbital Gradient       TolG            .... 1.000e-005
 Orbital Rotation angle TolX            .... 1.000e-005
 DIIS Error             TolErr          .... 5.000e-007


Diagonalization of the overlap matrix:
Smallest eigenvalue                        ... 1.331e-003
Time for diagonalization                   ...    0.005 sec
Threshold for overlap eigenvalues          ... 1.000e-008
Number of eigenvalues below threshold      ... 0
Time for construction of square roots      ...    0.002 sec
Total time needed                          ...    0.007 sec

-------------------
DFT GRID GENERATION
-------------------

General Integration Accuracy     IntAcc      ...  4.340
Radial Grid Type                 RadialGrid  ... Gauss-Chebyshev
Angular Grid (max. acc.)         AngularGrid ... Lebedev-110
Angular grid pruning method      GridPruning ... 3 (G Style)
Weight generation scheme         WeightScheme... Becke
Basis function cutoff            BFCut       ...   1.0000e-011
Integration weight cutoff        WCut        ...   1.0000e-014
Grids for H and He will be reduced by one unit

# of grid points (after initial pruning)     ...  20620 (   0.0 sec)
# of grid points (after weights+screening)   ...  19043 (   0.0 sec)
nearest neighbour list constructed           ...    0.0 sec
Grid point re-assignment to atoms done       ...    0.0 sec
Grid point division into batches done        ...    0.0 sec
Reduced shell lists constructed in    0.1 sec

Total number of grid points                  ...    19043
Total number of batches                      ...      307
Average number of points per batch           ...       62
Average number of grid points per atom       ...     1120
Average number of shells per batch           ...    55.00 (73.33%)
Average number of basis functions per batch  ...   112.74 (71.81%)
Average number of large shells per batch     ...    42.82 (77.87%)
Average number of large basis fcns per batch ...    85.01 (75.41%)
Maximum spatial batch extension              ...  18.23, 21.16, 22.44 au
Average spatial batch extension              ...   3.63,  3.59,  3.75 au

Time for grid setup =    0.137 sec

------------------------------
INITIAL GUESS: MODEL POTENTIAL
------------------------------
Loading Hartree-Fock densities                     ... done
Calculating cut-offs                               ... done
Setting up the integral package                    ... done
Initializing the effective Hamiltonian             ... done
Starting the Coulomb interaction                   ... done (   0.0 sec)
Reading the grid                                   ... done
Mapping shells                                     ... done
Starting the XC term evaluation                    ... done (   0.1 sec)
  promolecular density results
     # of electrons  =     63.995803523
     EX              =    -54.079142199
     EC              =     -2.135302752
     EX+EC           =    -56.214444951
Transforming the Hamiltonian                       ... done (   0.0 sec)
Diagonalizing the Hamiltonian                      ... done (   0.0 sec)
Back transforming the eigenvectors                 ... done (   0.0 sec)
Now organizing SCF variables                       ... done
                      ------------------
                      INITIAL GUESS DONE (   0.4 sec)
                      ------------------
--------------
SCF ITERATIONS
--------------
ITER       Energy         Delta-E        Max-DP      RMS-DP      [F,P]     Damp
               ***  Starting incremental Fock matrix formation  ***
  0   -437.1630514541   0.000000000000 0.12140579  0.00306983  0.2591147 0.7000
  1   -437.3035311550  -0.140479700878 0.08351583  0.00193210  0.1032613 0.7000
                               ***Turning on DIIS***
  2   -437.3537854746  -0.050254319570 0.09032773  0.00265881  0.0384836 0.0000
  3   -437.4377520702  -0.083966595644 0.06463798  0.00137721  0.0569570 0.0000
  4   -437.4545460907  -0.016794020484 0.01262343  0.00037207  0.0134101 0.0000
  5   -437.4555491635  -0.001003072798 0.00472455  0.00011365  0.0054099 0.0000
                      *** Initiating the SOSCF procedure ***
                           *** Shutting down DIIS ***
                      *** Re-Reading the Fockian *** 
                      *** Removing any level shift *** 
ITER      Energy       Delta-E        Grad      Rot      Max-DP    RMS-DP
  6   -437.45560279  -0.0000536225  0.000235  0.000235  0.000988  0.000037
               *** Restarting incremental Fock matrix formation ***
  7   -437.45560894  -0.0000061495  0.000146  0.000395  0.000658  0.000025
  8   -437.45560915  -0.0000002112  0.000176  0.000248  0.000388  0.000010
  9   -437.45560990  -0.0000007543  0.000052  0.000106  0.000154  0.000005
 10   -437.45560987   0.0000000311  0.000061  0.000060  0.000103  0.000003
 11   -437.45560994  -0.0000000701  0.000007  0.000013  0.000054  0.000001
 12   -437.45560994   0.0000000002  0.000007  0.000006  0.000028  0.000001
                  ***Gradient check signals convergence***
              ***Rediagonalizing the Fockian in SOSCF/NRSCF***

               *****************************************************
               *                     SUCCESS                       *
               *           SCF CONVERGED AFTER  13 CYCLES          *
               *****************************************************

Setting up the final grid:

General Integration Accuracy     IntAcc      ...  4.670
Radial Grid Type                 RadialGrid  ... Gauss-Chebyshev
Angular Grid (max. acc.)         AngularGrid ... Lebedev-302
Angular grid pruning method      GridPruning ... 3 (G Style)
Weight generation scheme         WeightScheme... Becke
Basis function cutoff            BFCut       ...   1.0000e-011
Integration weight cutoff        WCut        ...   1.0000e-014
Grids for H and He will be reduced by one unit

# of grid points (after initial pruning)     ...  80242 (   0.0 sec)
# of grid points (after weights+screening)   ...  72881 (   0.1 sec)
nearest neighbour list constructed           ...    0.0 sec
Grid point re-assignment to atoms done       ...    0.0 sec
Grid point division into batches done        ...    0.2 sec
Reduced shell lists constructed in    0.4 sec

Total number of grid points                  ...    72881
Total number of batches                      ...     1148
Average number of points per batch           ...       63
Average number of grid points per atom       ...     4287
Average number of shells per batch           ...    50.48 (67.31%)
Average number of basis functions per batch  ...   102.62 (65.36%)
Average number of large shells per batch     ...    38.66 (76.58%)
Average number of large basis fcns per batch ...    75.86 (73.93%)
Maximum spatial batch extension              ...  18.51, 16.17, 22.29 au
Average spatial batch extension              ...   2.41,  2.34,  2.43 au

Final grid set up in    0.6 sec
Final integration                            ... done (   0.6 sec)
Change in XC energy                          ...     0.000743689
Integrated number of electrons               ...    63.999921186
Previous integrated no of electrons          ...    64.002473858

----------------
TOTAL SCF ENERGY
----------------

Total Energy       :         -437.45486625 Eh          -11903.75209 eV

Components:
Nuclear Repulsion  :          406.92961711 Eh           11073.11783 eV
Electronic Energy  :         -844.38448337 Eh          -22976.86991 eV
One Electron Energy:        -1404.41333228 Eh          -38216.02964 eV
Two Electron Energy:          560.02884892 Eh           15239.15972 eV

Virial components:
Potential Energy   :         -870.92782856 Eh          -23699.15106 eV
Kinetic Energy     :          433.47296231 Eh           11795.39897 eV
Virial Ratio       :            2.00918605


DFT components:
N(Alpha)           :       31.999960592771 electrons
N(Beta)            :       31.999960592771 electrons
N(Total)           :       63.999921185542 electrons
E(X)               :      -41.249046637255 Eh       
E(C)               :       -2.158970509654 Eh       
E(XC)              :      -43.408017146909 Eh       

---------------
SCF CONVERGENCE
---------------

  Last Energy change         ...  -2.7824e-009  Tolerance :  1.0000e-008
  Last MAX-Density change    ...   3.7767e-006  Tolerance :  1.0000e-007
  Last RMS-Density change    ...   9.8785e-008  Tolerance :  5.0000e-009
  Last Orbital Gradient      ...   6.6728e-007  Tolerance :  1.0000e-005
  Last Orbital Rotation      ...   8.3019e-007  Tolerance :  1.0000e-005

             **** THE GBW FILE WAS UPDATED (threonine.gbw) ****
             **** DENSITY FILE WAS UPDATED (threonine.scfp.tmp) ****
             **** ENERGY FILE WAS UPDATED (threonine.en.tmp) ****
----------------
ORBITAL ENERGIES
----------------

  NO   OCC          E(Eh)            E(eV) 
   0   2.0000     -19.251944      -523.8720 
   1   2.0000     -19.233360      -523.3663 
   2   2.0000     -19.190735      -522.2065 
   3   2.0000     -14.384962      -391.4347 
   4   2.0000     -10.361105      -281.9400 
   5   2.0000     -10.305687      -280.4320 
   6   2.0000     -10.288247      -279.9574 
   7   2.0000     -10.236451      -278.5480 
   8   2.0000      -1.110574       -30.2202 
   9   2.0000      -1.062080       -28.9007 
  10   2.0000      -1.023881       -27.8612 
  11   2.0000      -0.905996       -24.6534 
  12   2.0000      -0.776412       -21.1272 
  13   2.0000      -0.720949       -19.6180 
  14   2.0000      -0.649791       -17.6817 
  15   2.0000      -0.635570       -17.2947 
  16   2.0000      -0.558686       -15.2026 
  17   2.0000      -0.539338       -14.6761 
  18   2.0000      -0.495007       -13.4698 
  19   2.0000      -0.474124       -12.9016 
  20   2.0000      -0.466420       -12.6919 
  21   2.0000      -0.455862       -12.4046 
  22   2.0000      -0.438149       -11.9226 
  23   2.0000      -0.412789       -11.2326 
  24   2.0000      -0.403948       -10.9920 
  25   2.0000      -0.393506       -10.7079 
  26   2.0000      -0.387935       -10.5563 
  27   2.0000      -0.346817        -9.4374 
  28   2.0000      -0.330958        -9.0058 
  29   2.0000      -0.307041        -8.3550 
  30   2.0000      -0.283578        -7.7165 
  31   2.0000      -0.259186        -7.0528 
  32   0.0000       0.003887         0.1058 
  33   0.0000       0.032726         0.8905 
  34   0.0000       0.063412         1.7255 
  35   0.0000       0.082199         2.2367 
  36   0.0000       0.084923         2.3109 
  37   0.0000       0.117567         3.1992 
  38   0.0000       0.132219         3.5979 
  39   0.0000       0.142018         3.8645 
  40   0.0000       0.149250         4.0613 
  41   0.0000       0.157327         4.2811 
  42   0.0000       0.209945         5.7129 
  43   0.0000       0.211838         5.7644 
  44   0.0000       0.235285         6.4024 
  45   0.0000       0.241308         6.5663 
  46   0.0000       0.260050         7.0763 
  47   0.0000       0.339433         9.2364 
  48   0.0000       0.385151        10.4805 
  49   0.0000       0.433642        11.8000 
  50   0.0000       0.451352        12.2819 
  51   0.0000       0.459648        12.5077 
  52   0.0000       0.481448        13.1009 
  53   0.0000       0.503862        13.7108 
  54   0.0000       0.520649        14.1676 
  55   0.0000       0.556409        15.1406 
  56   0.0000       0.569652        15.5010 
  57   0.0000       0.586123        15.9492 
  58   0.0000       0.593425        16.1479 
  59   0.0000       0.617123        16.7928 
  60   0.0000       0.634586        17.2680 
  61   0.0000       0.644636        17.5414 
  62   0.0000       0.654179        17.8011 
  63   0.0000       0.664803        18.0902 
  64   0.0000       0.666787        18.1442 
  65   0.0000       0.691205        18.8087 
  66   0.0000       0.695751        18.9324 
  67   0.0000       0.708854        19.2889 
  68   0.0000       0.715844        19.4791 
  69   0.0000       0.717452        19.5229 
  70   0.0000       0.743986        20.2449 
  71   0.0000       0.781752        21.2726 
  72   0.0000       0.847009        23.0483 
  73   0.0000       0.862363        23.4661 
  74   0.0000       0.923950        25.1419 
  75   0.0000       0.951781        25.8993 
  76   0.0000       0.963138        26.2083 
  77   0.0000       0.979141        26.6438 
  78   0.0000       1.007646        27.4194 
  79   0.0000       1.036879        28.2149 
  80   0.0000       1.066648        29.0250 
  81   0.0000       1.090063        29.6621 
  82   0.0000       1.130468        30.7616 
  83   0.0000       1.133320        30.8392 
  84   0.0000       1.206847        32.8400 
  85   0.0000       1.255793        34.1719 
  86   0.0000       1.274382        34.6777 
  87   0.0000       1.311718        35.6937 
  88   0.0000       1.328786        36.1581 
  89   0.0000       1.346370        36.6366 
  90   0.0000       1.363753        37.1096 
  91   0.0000       1.392141        37.8821 
  92   0.0000       1.413009        38.4499 
  93   0.0000       1.423821        38.7441 
  94   0.0000       1.516236        41.2589 
  95   0.0000       1.541680        41.9512 
  96   0.0000       1.554048        42.2878 
  97   0.0000       1.610451        43.8226 
  98   0.0000       1.648105        44.8472 
  99   0.0000       1.667348        45.3708 
 100   0.0000       1.681801        45.7641 
 101   0.0000       1.694329        46.1050 
 102   0.0000       1.728697        47.0402 
 103   0.0000       1.736839        47.2618 
 104   0.0000       1.758923        47.8627 
 105   0.0000       1.778255        48.3888 
 106   0.0000       1.786815        48.6217 
 107   0.0000       1.816796        49.4375 
 108   0.0000       1.823406        49.6174 
 109   0.0000       1.850105        50.3439 
 110   0.0000       1.877901        51.1003 
 111   0.0000       1.905209        51.8434 
 112   0.0000       1.914306        52.0909 
 113   0.0000       1.937360        52.7182 
 114   0.0000       1.964173        53.4479 
 115   0.0000       1.977840        53.8198 
 116   0.0000       2.030267        55.2464 
 117   0.0000       2.070775        56.3487 
 118   0.0000       2.084767        56.7294 
 119   0.0000       2.097546        57.0771 
 120   0.0000       2.147825        58.4453 
 121   0.0000       2.172977        59.1297 
 122   0.0000       2.210950        60.1630 
 123   0.0000       2.235176        60.8222 
 124   0.0000       2.282179        62.1012 
 125   0.0000       2.302820        62.6629 
 126   0.0000       2.361359        64.2558 
 127   0.0000       2.413159        65.6654 
 128   0.0000       2.445616        66.5486 
 129   0.0000       2.477251        67.4094 
 130   0.0000       2.519012        68.5458 
 131   0.0000       2.561548        69.7033 
 132   0.0000       2.662227        72.4429 
 133   0.0000       2.717758        73.9540 
 134   0.0000       2.733994        74.3958 
 135   0.0000       2.748277        74.7844 
 136   0.0000       2.801993        76.2461 
 137   0.0000       2.824597        76.8612 
 138   0.0000       2.831437        77.0473 
 139   0.0000       2.845151        77.4205 
 140   0.0000       2.875628        78.2498 
 141   0.0000       2.939066        79.9761 
 142   0.0000       2.954069        80.3843 
 143   0.0000       2.979187        81.0678 
 144   0.0000       3.020502        82.1920 
 145   0.0000       3.040537        82.7372 
 146   0.0000       3.063072        83.3504 
 147   0.0000       3.144073        85.5546 
 148   0.0000       3.179849        86.5281 
 149   0.0000       3.248093        88.3851 
 150   0.0000       3.291861        89.5761 
 151   0.0000       3.352425        91.2241 
 152   0.0000       3.399246        92.4982 
 153   0.0000       3.511554        95.5543 
 154   0.0000       3.648402        99.2781 
 155   0.0000       3.739245       101.7500 
 156   0.0000       3.835117       104.3588 

                    ********************************
                    * MULLIKEN POPULATION ANALYSIS *
                    ********************************

-----------------------
MULLIKEN ATOMIC CHARGES
-----------------------
   0 C :   -0.010875
   1 C :    0.057669
   2 C :   -0.106876
   3 C :    0.249211
   4 O :   -0.244673
   5 O :   -0.202715
   6 N :   -0.257021
   7 O :   -0.333393
   8 H :    0.056150
   9 H :    0.022591
  10 H :    0.056074
  11 H :    0.045761
  12 H :    0.038212
  13 H :    0.180040
  14 H :    0.134928
  15 H :    0.134187
  16 H :    0.180730
Sum of atomic charges:   -0.0000000

--------------------------------
MULLIKEN REDUCED ORBITAL CHARGES
--------------------------------
  0 C s       :     3.028243  s :     3.028243
      pz      :     1.002226  p :     2.957471
      px      :     0.926265
      py      :     1.028981
      dz2     :     0.005286  d :     0.025161
      dxz     :     0.004830
      dyz     :     0.004546
      dx2y2   :     0.006434
      dxy     :     0.004065
  1 C s       :     3.098279  s :     3.098279
      pz      :     0.984852  p :     2.771984
      px      :     0.990719
      py      :     0.796414
      dz2     :     0.012123  d :     0.072067
      dxz     :     0.009167
      dyz     :     0.016670
      dx2y2   :     0.018325
      dxy     :     0.015784
  2 C s       :     3.103543  s :     3.103543
      pz      :     1.041865  p :     2.948387
      px      :     0.966094
      py      :     0.940428
      dz2     :     0.009913  d :     0.054946
      dxz     :     0.005958
      dyz     :     0.011540
      dx2y2   :     0.016670
      dxy     :     0.010865
  3 C s       :     3.053908  s :     3.053908
      pz      :     0.797044  p :     2.565318
      px      :     0.946337
      py      :     0.821936
      dz2     :     0.009305  d :     0.131564
      dxz     :     0.010420
      dyz     :     0.026813
      dx2y2   :     0.046151
      dxy     :     0.038875
  4 O s       :     3.762096  s :     3.762096
      pz      :     1.382170  p :     4.464578
      px      :     1.658067
      py      :     1.424342
      dz2     :     0.002149  d :     0.017999
      dxz     :     0.001789
      dyz     :     0.004236
      dx2y2   :     0.004310
      dxy     :     0.005515
  5 O s       :     3.671370  s :     3.671370
      pz      :     1.758645  p :     4.519424
      px      :     1.625397
      py      :     1.135382
      dz2     :     0.001952  d :     0.011921
      dxz     :     0.001827
      dyz     :     0.001018
      dx2y2   :     0.001348
      dxy     :     0.005776
  6 N s       :     3.448514  s :     3.448514
      pz      :     1.062958  p :     3.791255
      px      :     1.695978
      py      :     1.032318
      dz2     :     0.002458  d :     0.017253
      dxz     :     0.003760
      dyz     :     0.004029
      dx2y2   :     0.002367
      dxy     :     0.004638
  7 O s       :     3.756441  s :     3.756441
      pz      :     1.600533  p :     4.563832
      px      :     1.771274
      py      :     1.192025
      dz2     :     0.001841  d :     0.013121
      dxz     :     0.002204
      dyz     :     0.004656
      dx2y2   :     0.001730
      dxy     :     0.002690
  8 H s       :     0.919870  s :     0.919870
      pz      :     0.005706  p :     0.023980
      px      :     0.005015
      py      :     0.013258
  9 H s       :     0.953943  s :     0.953943
      pz      :     0.009056  p :     0.023466
      px      :     0.005600
      py      :     0.008810
 10 H s       :     0.920788  s :     0.920788
      pz      :     0.012750  p :     0.023137
      px      :     0.004918
      py      :     0.005469
 11 H s       :     0.934328  s :     0.934328
      pz      :     0.008373  p :     0.019911
      px      :     0.004457
      py      :     0.007080
 12 H s       :     0.941567  s :     0.941567
      pz      :     0.008561  p :     0.020221
      px      :     0.004780
      py      :     0.006879
 13 H s       :     0.749555  s :     0.749555
      pz      :     0.017927  p :     0.070405
      px      :     0.018626
      py      :     0.033852
 14 H s       :     0.821231  s :     0.821231
      pz      :     0.014685  p :     0.043841
      px      :     0.013869
      py      :     0.015287
 15 H s       :     0.822196  s :     0.822196
      pz      :     0.022180  p :     0.043616
      px      :     0.013637
      py      :     0.007799
 16 H s       :     0.752661  s :     0.752661
      pz      :     0.023739  p :     0.066609
      px      :     0.019410
      py      :     0.023460


                     *******************************
                     * LOEWDIN POPULATION ANALYSIS *
                     *******************************

----------------------
LOEWDIN ATOMIC CHARGES
----------------------
   0 C :   -0.080789
   1 C :    0.045473
   2 C :   -0.053371
   3 C :    0.084737
   4 O :   -0.187633
   5 O :   -0.041096
   6 N :   -0.115062
   7 O :   -0.135216
   8 H :    0.038725
   9 H :    0.024674
  10 H :    0.034779
  11 H :    0.032928
  12 H :    0.031213
  13 H :    0.085760
  14 H :    0.072623
  15 H :    0.075269
  16 H :    0.086984

-------------------------------
LOEWDIN REDUCED ORBITAL CHARGES
-------------------------------
  0 C s       :     2.862612  s :     2.862612
      pz      :     1.063400  p :     3.151173
      px      :     1.011867
      py      :     1.075905
      dz2     :     0.014713  d :     0.067005
      dxz     :     0.011535
      dyz     :     0.011768
      dx2y2   :     0.018837
      dxy     :     0.010152
  1 C s       :     2.856323  s :     2.856323
      pz      :     1.025272  p :     2.938552
      px      :     1.031982
      py      :     0.881299
      dz2     :     0.028128  d :     0.159652
      dxz     :     0.019483
      dyz     :     0.038668
      dx2y2   :     0.041075
      dxy     :     0.032298
  2 C s       :     2.868829  s :     2.868829
      pz      :     1.050867  p :     3.055518
      px      :     1.028075
      py      :     0.976575
      dz2     :     0.023895  d :     0.129023
      dxz     :     0.014452
      dyz     :     0.025544
      dx2y2   :     0.040360
      dxy     :     0.024772
  3 C s       :     2.870753  s :     2.870753
      pz      :     0.799275  p :     2.757463
      px      :     1.029595
      py      :     0.928593
      dz2     :     0.019850  d :     0.287047
      dxz     :     0.019501
      dyz     :     0.052016
      dx2y2   :     0.105247
      dxy     :     0.090433
  4 O s       :     3.561084  s :     3.561084
      pz      :     1.383422  p :     4.596328
      px      :     1.690966
      py      :     1.521941
      dz2     :     0.004142  d :     0.030221
      dxz     :     0.002295
      dyz     :     0.005702
      dx2y2   :     0.006875
      dxy     :     0.011207
  5 O s       :     3.405620  s :     3.405620
      pz      :     1.718281  p :     4.610719
      px      :     1.654720
      py      :     1.237718
      dz2     :     0.003916  d :     0.024758
      dxz     :     0.001746
      dyz     :     0.002306
      dx2y2   :     0.003793
      dxy     :     0.012997
  6 N s       :     3.145858  s :     3.145858
      pz      :     1.140329  p :     3.929847
      px      :     1.677148
      py      :     1.112369
      dz2     :     0.007527  d :     0.039358
      dxz     :     0.006316
      dyz     :     0.011969
      dx2y2   :     0.004802
      dxy     :     0.008744
  7 O s       :     3.461286  s :     3.461286
      pz      :     1.633807  p :     4.649426
      px      :     1.759694
      py      :     1.255926
      dz2     :     0.002416  d :     0.024503
      dxz     :     0.002786
      dyz     :     0.009900
      dx2y2   :     0.003796
      dxy     :     0.005605
  8 H s       :     0.893922  s :     0.893922
      pz      :     0.014025  p :     0.067353
      px      :     0.015846
      py      :     0.037481
  9 H s       :     0.910888  s :     0.910888
      pz      :     0.024059  p :     0.064438
      px      :     0.016629
      py      :     0.023750
 10 H s       :     0.900152  s :     0.900152
      pz      :     0.035687  p :     0.065068
      px      :     0.015459
      py      :     0.013922
 11 H s       :     0.903615  s :     0.903615
      pz      :     0.026139  p :     0.063458
      px      :     0.015115
      py      :     0.022204
 12 H s       :     0.902195  s :     0.902195
      pz      :     0.026907  p :     0.066591
      px      :     0.016535
      py      :     0.023150
 13 H s       :     0.732081  s :     0.732081
      pz      :     0.047532  p :     0.182159
      px      :     0.052690
      py      :     0.081937
 14 H s       :     0.812094  s :     0.812094
      pz      :     0.034607  p :     0.115283
      px      :     0.040302
      py      :     0.040373
 15 H s       :     0.809620  s :     0.809620
      pz      :     0.055736  p :     0.115111
      px      :     0.040617
      py      :     0.018758
 16 H s       :     0.743125  s :     0.743125
      pz      :     0.065064  p :     0.169891
      px      :     0.051384
      py      :     0.053443


                      *****************************
                      * MAYER POPULATION ANALYSIS *
                      *****************************

  NA   - Mulliken gross atomic population
  ZA   - Total nuclear charge
  QA   - Mulliken gross atomic charge
  VA   - Mayer's total valence
  BVA  - Mayer's bonded valence
  FA   - Mayer's free valence

  ATOM       NA         ZA         QA         VA         BVA        FA
  0 C      6.0109     6.0000    -0.0109     3.9212     3.9212     0.0000
  1 C      5.9423     6.0000     0.0577     4.0142     4.0142     0.0000
  2 C      6.1069     6.0000    -0.1069     3.8639     3.8639     0.0000
  3 C      5.7508     6.0000     0.2492     4.2505     4.2505    -0.0000
  4 O      8.2447     8.0000    -0.2447     2.2396     2.2396    -0.0000
  5 O      8.2027     8.0000    -0.2027     2.2134     2.2134    -0.0000
  6 N      7.2570     7.0000    -0.2570     3.0755     3.0755     0.0000
  7 O      8.3334     8.0000    -0.3334     2.0639     2.0639     0.0000
  8 H      0.9438     1.0000     0.0562     1.0169     1.0169     0.0000
  9 H      0.9774     1.0000     0.0226     0.9979     0.9979     0.0000
 10 H      0.9439     1.0000     0.0561     0.9857     0.9857     0.0000
 11 H      0.9542     1.0000     0.0458     0.9781     0.9781     0.0000
 12 H      0.9618     1.0000     0.0382     0.9881     0.9881     0.0000
 13 H      0.8200     1.0000     0.1800     1.0397     1.0397    -0.0000
 14 H      0.8651     1.0000     0.1349     0.9995     0.9995    -0.0000
 15 H      0.8658     1.0000     0.1342     0.9951     0.9951    -0.0000
 16 H      0.8193     1.0000     0.1807     1.0087     1.0087     0.0000

  Mayer bond orders larger than 0.1
B(  0-C ,  1-C ) :   1.0728 B(  0-C ,  8-H ) :   0.9502 B(  0-C ,  9-H ) :   0.9566 
B(  0-C , 10-H ) :   0.9653 B(  1-C ,  2-C ) :   0.9788 B(  1-C ,  7-O ) :   0.9817 
B(  1-C , 11-H ) :   0.9178 B(  2-C ,  3-C ) :   0.8954 B(  2-C ,  6-N ) :   1.0982 
B(  2-C , 12-H ) :   0.8983 B(  3-C ,  4-O ) :   2.1071 B(  3-C ,  5-O ) :   1.1956 
B(  5-O , 13-H ) :   0.9334 B(  6-N , 14-H ) :   0.9539 B(  6-N , 15-H ) :   0.9537 
B(  7-O , 16-H ) :   0.9629 

-------
TIMINGS
-------

Total SCF time: 0 days 0 hours 0 min 34 sec 

Total time                  ....      34.563 sec
Sum of individual times     ....      34.518 sec  ( 99.9%)

Fock matrix formation       ....      33.490 sec  ( 96.9%)
  XC integration            ....       3.089 sec  (  9.2% of F)
    Basis function eval.    ....       0.951 sec  ( 30.8% of XC)
    Density eval.           ....       0.837 sec  ( 27.1% of XC)
    XC-Functional eval.     ....       0.122 sec  (  3.9% of XC)
    XC-Potential eval.      ....       0.924 sec  ( 29.9% of XC)
Diagonalization             ....       0.015 sec  (  0.0%)
Density matrix formation    ....       0.002 sec  (  0.0%)
Population analysis         ....       0.007 sec  (  0.0%)
Initial guess               ....       0.255 sec  (  0.7%)
Orbital Transformation      ....       0.000 sec  (  0.0%)
Orbital Orthonormalization  ....       0.000 sec  (  0.0%)
DIIS solution               ....       0.008 sec  (  0.0%)
SOSCF solution              ....       0.007 sec  (  0.0%)
Grid generation             ....       0.734 sec  (  2.1%)

-------------------------   --------------------
FINAL SINGLE POINT ENERGY      -437.454866253421
-------------------------   --------------------

------------------------------------------------------------------------------
                         ORCA SCF GRADIENT CALCULATION
------------------------------------------------------------------------------

Gradient of the Kohn-Sham DFT energy:
Kohn-Sham wavefunction type      ... RKS
Hartree-Fock exchange scaling    ...    0.250
Number of operators              ...    1
Number of atoms                  ...   17
Basis set dimensions             ...  157
Integral neglect threshold       ... 2.5e-011
Integral primitive cutoff        ... 2.5e-012

Nuclear repulsion gradient       ... done
One Electron Gradient            
  ECP gradient                   ... done
Pre-screening matrix             ... done
Starting the two electron gradient:
Two electron gradient done
Exchange-correlation gradient    ... done

------------------
CARTESIAN GRADIENT
------------------

   1   C   :   -0.001345985    0.007892937   -0.001469839
   2   C   :    0.017353195   -0.001020581    0.005579256
   3   C   :    0.007166698    0.018268770   -0.001601021
   4   C   :   -0.027207002    0.016786791    0.006808424
   5   O   :    0.015300904   -0.031899397   -0.009306570
   6   O   :   -0.008446050    0.009652521    0.005349605
   7   N   :   -0.005168509   -0.001841895    0.003851054
   8   O   :   -0.002451946   -0.019680573    0.017186688
   9   H   :   -0.002266050   -0.008313239    0.001054890
  10   H   :   -0.001466105    0.004276386   -0.003015238
  11   H   :   -0.003606182   -0.000284419    0.006369305
  12   H   :   -0.003077615   -0.006544308    0.003152077
  13   H   :    0.000228948    0.000280580   -0.004240062
  14   H   :    0.015105834    0.012173866   -0.003783619
  15   H   :    0.000660731   -0.016425478    0.018679663
  16   H   :    0.003566743   -0.001684223   -0.025532947
  17   H   :   -0.004347609    0.018362263   -0.019081664

Difference to translation invariance:
           :   -0.0000000000   -0.0000000000    0.0000000000

Norm of the cartesian gradient     ...    0.0822017458
RMS gradient                       ...    0.0115105468
MAX gradient                       ...    0.0318993974

-------
TIMINGS
-------

Total SCF gradient time            ...       11.834 sec

One electron gradient       ....       0.088 sec  (  0.7%)
Prescreening matrices       ....       0.066 sec  (  0.6%)
Two electron gradient       ....       8.302 sec  ( 70.2%)
XC gradient                 ....       3.296 sec  ( 27.9%)
------------------------------------------------------------------------------
                         ORCA GEOMETRY RELAXATION STEP
------------------------------------------------------------------------------

Reading the OPT-File                    .... done
Getting information on internals        .... done
Copying old internal coords+grads       .... done
Making the new internal coordinates     .... (new redundants).... done
Validating the new internal coordinates .... (new redundants).... done
Calculating the B-matrix                .... done
Calculating the G,G- and P matrices     .... done
Transforming gradient to internals      .... done
Projecting the internal gradient        .... done
Number of atoms                         ....  17
Number of internal coordinates          ....  77
Current Energy                          ....  -437.454866253 Eh
Current gradient norm                   ....     0.082201746 Eh/bohr
Maximum allowed component of the step   ....  0.300
Current trust radius                    ....  0.300
Evaluating the initial hessian          ....  (Almloef) done
Projecting the Hessian                  .... done
Forming the augmented Hessian           .... done
Diagonalizing the augmented Hessian     .... done
Last element of RFO vector              ....  0.941633453
Lowest eigenvalues of augmented Hessian:
 -0.017073071  0.009677732  0.010644010  0.011387205  0.015056101
Length of the computed step             ....  0.357506338
Warning: the length of the step is outside the trust region - taking restricted step instead
The input lambda is                     ....    -0.017073
   iter:   1  x=   -0.024084  g=    5.392902 f(x)=     0.037811
   iter:   2  x=   -0.026924  g=    3.142396 f(x)=     0.008924
   iter:   3  x=   -0.027226  g=    2.611868 f(x)=     0.000788
   iter:   4  x=   -0.027229  g=    2.563458 f(x)=     0.000007
   iter:   5  x=   -0.027229  g=    2.563006 f(x)=     0.000000
   iter:   6  x=   -0.027229  g=    2.563006 f(x)=     0.000000
The output lambda is                    ....    -0.027229 (6 iterations)
The final length of the internal step   ....  0.300000000
Converting the step to cartesian space:
 Initial RMS(Int)=    0.0341881729
Transforming coordinates:
 Iter   0:  RMS(Cart)=    0.0784612392 RMS(Int)=    1.0040590945
 Iter   1:  RMS(Cart)=    0.0036497569 RMS(Int)=    0.0027292857
 Iter   2:  RMS(Cart)=    0.0005047833 RMS(Int)=    0.0003128788
 Iter   3:  RMS(Cart)=    0.0000750158 RMS(Int)=    0.0000606826
 Iter   4:  RMS(Cart)=    0.0000114958 RMS(Int)=    0.0000082440
 Iter   5:  RMS(Cart)=    0.0000018021 RMS(Int)=    0.0000013608
 Iter   6:  RMS(Cart)=    0.0000002737 RMS(Int)=    0.0000002203
 Iter   7:  RMS(Cart)=    0.0000000436 RMS(Int)=    0.0000000296
done
Storing new coordinates                 .... done

                                .--------------------.
          ----------------------|Geometry convergence|-------------------------
          Item                value                   Tolerance       Converged
          ---------------------------------------------------------------------
          RMS gradient        0.0090645063            0.0001000000      NO
          MAX gradient        0.0363482495            0.0003000000      NO
          RMS step            0.0341881729            0.0020000000      NO
          MAX step            0.1114323409            0.0040000000      NO
          ........................................................
          Max(Bonds)      0.0326      Max(Angles)    4.80
          Max(Dihed)        6.38      Max(Improp)    0.00
          ---------------------------------------------------------------------

The optimization has not yet converged - more geometry cycles are needed


    ---------------------------------------------------------------------------
                         Redundant Internal Coordinates
                            (Angstroem and degrees)

        Definition                    Value    dE/dq     Step     New-Value
    ----------------------------------------------------------------------------
     1. B(C   1,C   0)                1.5367  0.008657 -0.0117    1.5250   
     2. B(C   2,C   1)                1.5539  0.007867 -0.0113    1.5427   
     3. B(C   3,C   2)                1.5248 -0.005273  0.0068    1.5317   
     4. B(O   4,C   3)                1.2219  0.036348 -0.0181    1.2038   
     5. B(O   5,C   3)                1.3509  0.022015 -0.0173    1.3336   
     6. B(N   6,C   2)                1.4681  0.018976 -0.0225    1.4456   
     7. B(O   7,C   1)                1.4052 -0.003928  0.0037    1.4089   
     8. B(H   8,C   0)                1.1102  0.008119 -0.0119    1.0984   
     9. B(H   9,C   0)                1.1109  0.005332 -0.0078    1.1031   
    10. B(H  10,C   0)                1.1106  0.006941 -0.0102    1.1005   
    11. B(H  11,C   1)                1.1121  0.005534 -0.0082    1.1040   
    12. B(H  12,C   2)                1.1123  0.002992 -0.0044    1.1079   
    13. B(H  13,O   5)                0.9657  0.003833 -0.0038    0.9619   
    14. B(H  14,N   6)                1.0464  0.023755 -0.0310    1.0154   
    15. B(H  15,N   6)                1.0461  0.025015 -0.0326    1.0135   
    16. B(H  16,O   7)                0.9936  0.026358 -0.0286    0.9649   
    17. A(H   8,C   0,H   9)          108.82  0.001682   -0.49    108.33   
    18. A(C   1,C   0,H  10)          109.71  0.001890   -0.23    109.48   
    19. A(C   1,C   0,H   8)          110.93 -0.001161    0.24    111.17   
    20. A(C   1,C   0,H   9)          110.56 -0.000347   -0.08    110.47   
    21. A(H   8,C   0,H  10)          108.02 -0.001862    0.64    108.66   
    22. A(H   9,C   0,H  10)          108.74 -0.000226   -0.07    108.67   
    23. A(C   0,C   1,C   2)          112.26  0.001756   -0.02    112.24   
    24. A(C   2,C   1,O   7)          111.58  0.001535   -0.33    111.25   
    25. A(C   2,C   1,H  11)          108.38  0.000843   -0.66    107.72   
    26. A(O   7,C   1,H  11)          107.66  0.002394   -0.88    106.79   
    27. A(C   0,C   1,H  11)          107.39 -0.002061    0.67    108.06   
    28. A(C   0,C   1,O   7)          109.38 -0.004483    1.18    110.56   
    29. A(C   3,C   2,N   6)          110.72 -0.002864    1.11    111.83   
    30. A(C   1,C   2,N   6)          109.48 -0.002984    0.76    110.25   
    31. A(C   1,C   2,C   3)          111.85  0.003725   -0.61    111.23   
    32. A(N   6,C   2,H  12)          107.81  0.001032   -0.12    107.68   
    33. A(C   3,C   2,H  12)          107.89 -0.001616    0.14    108.03   
    34. A(C   1,C   2,H  12)          108.98  0.002758   -1.32    107.66   
    35. A(C   2,C   3,O   4)          120.30 -0.011581    1.53    121.83   
    36. A(O   4,C   3,O   5)          118.40 -0.003886    0.53    118.92   
    37. A(C   2,C   3,O   5)          121.29  0.015412   -1.98    119.31   
    38. A(C   3,O   5,H  13)          122.78  0.033423   -4.80    117.98   
    39. A(H  14,N   6,H  15)          109.21  0.003638   -1.96    107.24   
    40. A(C   2,N   6,H  15)          110.00 -0.000883   -0.47    109.53   
    41. A(C   2,N   6,H  14)          110.62  0.003899   -1.23    109.39   
    42. A(C   1,O   7,H  16)          107.59  0.002998   -0.45    107.14   
    43. D(H  11,C   1,C   0,H   8)    -59.19  0.000568   -0.41    -59.59   
    44. D(C   2,C   1,C   0,H   8)     59.84  0.001308   -0.79     59.05   
    45. D(C   2,C   1,C   0,H   9)    -60.98  0.000193   -0.28    -61.26   
    46. D(O   7,C   1,C   0,H   8)   -175.75  0.001226   -0.36   -176.11   
    47. D(H  11,C   1,C   0,H   9)    180.00 -0.000548    0.10    180.10   
    48. D(O   7,C   1,C   0,H  10)    -56.49 -0.000599    0.44    -56.05   
    49. D(O   7,C   1,C   0,H   9)     63.44  0.000111    0.15     63.59   
    50. D(H  11,C   1,C   0,H  10)     60.08 -0.001257    0.39     60.47   
    51. D(C   2,C   1,C   0,H  10)    179.10 -0.000517    0.01    179.11   
    52. D(N   6,C   2,C   1,O   7)   -178.72  0.000107    1.31   -177.41   
    53. D(N   6,C   2,C   1,C   0)    -55.53 -0.003318    2.59    -52.94   
    54. D(C   3,C   2,C   1,H  11)    -60.20 -0.001044    1.45    -58.75   
    55. D(C   3,C   2,C   1,O   7)     58.18  0.003331   -0.23     57.94   
    56. D(N   6,C   2,C   1,H  11)     62.91 -0.004268    2.99     65.90   
    57. D(C   3,C   2,C   1,C   0)   -178.63 -0.000094    1.05   -177.58   
    58. D(H  12,C   2,C   1,H  11)   -179.40 -0.003137    2.52   -176.89   
    59. D(H  12,C   2,C   1,O   7)    -61.03  0.001238    0.84    -60.19   
    60. D(H  12,C   2,C   1,C   0)     62.16 -0.002187    2.12     64.28   
    61. D(O   5,C   3,C   2,H  12)     56.02 -0.000872    3.28     59.30   
    62. D(O   5,C   3,C   2,N   6)    173.78 -0.002205    3.84    177.62   
    63. D(O   5,C   3,C   2,C   1)    -63.82 -0.005474    5.19    -58.63   
    64. D(O   4,C   3,C   2,H  12)   -122.32  0.001483    0.11   -122.21   
    65. D(O   4,C   3,C   2,N   6)     -4.57  0.000150    0.67     -3.90   
    66. D(O   4,C   3,C   2,C   1)    117.83 -0.003119    2.02    119.85   
    67. D(H  13,O   5,C   3,O   4)    175.65 -0.006105    6.38    182.03   
    68. D(H  13,O   5,C   3,C   2)     -2.73 -0.003661    3.25      0.53   
    69. D(H  15,N   6,C   2,C   1)    176.10 -0.002436    0.79    176.90   
    70. D(H  14,N   6,C   2,H  12)    178.40  0.001816   -1.53    176.87   
    71. D(H  14,N   6,C   2,C   3)     60.60  0.004763   -2.25     58.35   
    72. D(H  15,N   6,C   2,C   3)    -60.13 -0.001726    1.30    -58.83   
    73. D(H  14,N   6,C   2,C   1)    -63.17  0.004053   -2.76    -65.93   
    74. D(H  15,N   6,C   2,H  12)     57.68 -0.004674    2.02     59.70   
    75. D(H  16,O   7,C   1,H  11)   -178.19 -0.000532    2.46   -175.73   
    76. D(H  16,O   7,C   1,C   2)     63.01 -0.003953    4.00     67.01   
    77. D(H  16,O   7,C   1,C   0)    -61.80 -0.004033    3.40    -58.40   
    ----------------------------------------------------------------------------

         *************************************************************
         *                GEOMETRY OPTIMIZATION CYCLE   2            *
         *************************************************************
---------------------------------
CARTESIAN COORDINATES (ANGSTROEM)
---------------------------------
  C      0.996001    0.094370    0.045941
  C      2.519823    0.137524    0.005695
  C      3.079733   -0.282159   -1.369154
  C      4.611376   -0.288107   -1.365608
  O      5.242458   -1.287533   -1.593789
  O      5.267324    0.835491   -1.072952
  N      2.538103   -1.564289   -1.759829
  O      2.988794    1.412199    0.380330
  H      0.621722   -0.913791   -0.177459
  H      0.570514    0.794092   -0.693122
  H      0.646928    0.385425    1.048157
  H      2.902324   -0.575957    0.756274
  H      2.741731    0.466660   -2.112485
  H      4.749736    1.618832   -0.863920
  H      2.875126   -2.280175   -1.123434
  H      2.872499   -1.804929   -2.685869
  H      2.601868    2.049019   -0.232716

----------------------------
CARTESIAN COORDINATES (A.U.)
----------------------------
  NO LB      ZA    FRAG     MASS         X           Y           Z
   0 C     6.0000    0    12.011    1.882169    0.178333    0.086815
   1 C     6.0000    0    12.011    4.761775    0.259883    0.010761
   2 C     6.0000    0    12.011    5.819852   -0.533203   -2.587325
   3 C     6.0000    0    12.011    8.714238   -0.544443   -2.580624
   4 O     8.0000    0    15.999    9.906809   -2.433084   -3.011824
   5 O     8.0000    0    15.999    9.953800    1.578848   -2.027586
   6 N     7.0000    0    14.007    4.796319   -2.956078   -3.325595
   7 O     8.0000    0    15.999    5.648002    2.668669    0.718720
   8 H     1.0000    0     1.008    1.174884   -1.726814   -0.335349
   9 H     1.0000    0     1.008    1.078116    1.500616   -1.309811
  10 H     1.0000    0     1.008    1.222517    0.728347    1.980730
  11 H     1.0000    0     1.008    5.484598   -1.088402    1.429151
  12 H     1.0000    0     1.008    5.181120    0.881859   -3.992017
  13 H     1.0000    0     1.008    8.975700    3.059149   -1.632572
  14 H     1.0000    0     1.008    5.433201   -4.308907   -2.122983
  15 H     1.0000    0     1.008    5.428237   -3.410822   -5.075557
  16 H     1.0000    0     1.008    4.916818    3.872084   -0.439770

--------------------------------
INTERNAL COORDINATES (ANGSTROEM)
--------------------------------
 C      0   0   0     0.000000000000     0.00000000     0.00000000
 C      1   0   0     1.524964111272     0.00000000     0.00000000
 C      2   1   0     1.542673527994   112.24066775     0.00000000
 C      3   2   1     1.531658496576   111.21922619   182.42268849
 O      4   3   2     1.203820169509   121.80380104   119.84892790
 O      4   3   2     1.333561328809   119.28198878   301.37276015
 N      3   2   1     1.445630773884   110.25152399   307.06284836
 O      2   1   3     1.408928678963   110.56023156   124.84913943
 H      1   2   3     1.098353148480   111.16874250    59.04426741
 H      1   2   3     1.103115572483   110.47463423   298.73865667
 H      1   2   3     1.100455348118   109.48260605   179.10360990
 H      2   1   3     1.103962228544   108.05853000   241.36805337
 H      3   2   1     1.107933308803   107.65786860    64.27547063
 H      6   4   3     0.961881384982   117.98075228     0.53793112
 H      7   3   2     1.015419463672   109.36302458   294.07384315
 H      7   3   2     1.013547745454   109.50393293   176.87915460
 H      8   2   1     0.964923095504   107.13803022   301.59314528

---------------------------
INTERNAL COORDINATES (A.U.)
---------------------------
 C      0   0   0     0.000000000000     0.00000000     0.00000000
 C      1   0   0     2.881764534364     0.00000000     0.00000000
 C      2   1   0     2.915230481960   112.24066775     0.00000000
 C      3   2   1     2.894415089223   111.21922619   182.42268849
 O      4   3   2     2.274890434862   121.80380104   119.84892790
 O      4   3   2     2.520065694236   119.28198878   301.37276015
 N      3   2   1     2.731846253410   110.25152399   307.06284836
 O      2   1   3     2.662489345467   110.56023156   124.84913943
 H      1   2   3     2.075586648957   111.16874250    59.04426741
 H      1   2   3     2.084586326057   110.47463423   298.73865667
 H      1   2   3     2.079559230551   109.48260605   179.10360990
 H      2   1   3     2.086186274142   108.05853000   241.36805337
 H      3   2   1     2.093690528288   107.65786860    64.27547063
 H      6   4   3     1.817692390932   117.98075228     0.53793112
 H      7   3   2     1.918864697393   109.36302458   294.07384315
 H      7   3   2     1.915327662562   109.50393293   176.87915460
 H      8   2   1     1.823440390798   107.13803022   301.59314528


Diagonalization of the overlap matrix:
Smallest eigenvalue                        ... 1.288e-003
Time for diagonalization                   ...    0.001 sec
Threshold for overlap eigenvalues          ... 1.000e-008
Number of eigenvalues below threshold      ... 0
Time for construction of square roots      ...    0.004 sec
Total time needed                          ...    0.005 sec

-------------------
DFT GRID GENERATION
-------------------

General Integration Accuracy     IntAcc      ...  4.340
Radial Grid Type                 RadialGrid  ... Gauss-Chebyshev
Angular Grid (max. acc.)         AngularGrid ... Lebedev-110
Angular grid pruning method      GridPruning ... 3 (G Style)
Weight generation scheme         WeightScheme... Becke
Basis function cutoff            BFCut       ...   1.0000e-011
Integration weight cutoff        WCut        ...   1.0000e-014
Grids for H and He will be reduced by one unit

# of grid points (after initial pruning)     ...  20620 (   0.0 sec)
# of grid points (after weights+screening)   ...  19012 (   0.0 sec)
nearest neighbour list constructed           ...    0.0 sec
Grid point re-assignment to atoms done       ...    0.0 sec
Grid point division into batches done        ...    0.0 sec
Reduced shell lists constructed in    0.1 sec

Total number of grid points                  ...    19012
Total number of batches                      ...      306
Average number of points per batch           ...       62
Average number of grid points per atom       ...     1118
Average number of shells per batch           ...    55.44 (73.92%)
Average number of basis functions per batch  ...   113.90 (72.55%)
Average number of large shells per batch     ...    43.41 (78.30%)
Average number of large basis fcns per batch ...    86.30 (75.77%)
Maximum spatial batch extension              ...  18.41, 21.14, 22.44 au
Average spatial batch extension              ...   3.61,  3.62,  3.75 au

Time for grid setup =    0.131 sec

--------------
SCF ITERATIONS
--------------
ITER       Energy         Delta-E        Max-DP      RMS-DP      [F,P]     Damp
               ***  Starting incremental Fock matrix formation  ***
  0   -437.4571535565   0.000000000000 0.01133883  0.00034700  0.0346532 0.7000
                      *** Initiating the SOSCF procedure ***
                      *** Re-Reading the Fockian *** 
                      *** Removing any level shift *** 
ITER      Energy       Delta-E        Grad      Rot      Max-DP    RMS-DP
  1   -437.45965304  -0.0024994823  0.002000  0.002000  0.032733  0.001010
               *** Restarting incremental Fock matrix formation ***
  2   -437.46613042  -0.0064773841  0.001383  0.003870  0.006654  0.000260
  3   -437.46625514  -0.0001247198  0.001461  0.002773  0.004500  0.000137
  4   -437.46632806  -0.0000729196  0.001013  0.001811  0.002379  0.000071
  5   -437.46633483  -0.0000067668  0.000675  0.000639  0.001242  0.000039
  6   -437.46634365  -0.0000088190  0.000139  0.000205  0.000470  0.000020
  7   -437.46634469  -0.0000010450  0.000068  0.000055  0.000268  0.000008
  8   -437.46634500  -0.0000003091  0.000027  0.000032  0.000093  0.000003
  9   -437.46634503  -0.0000000287  0.000014  0.000016  0.000051  0.000002
 10   -437.46634504  -0.0000000117  0.000007  0.000006  0.000028  0.000001
                  ***Gradient check signals convergence***
              ***Rediagonalizing the Fockian in SOSCF/NRSCF***

               *****************************************************
               *                     SUCCESS                       *
               *           SCF CONVERGED AFTER  11 CYCLES          *
               *****************************************************

Setting up the final grid:

General Integration Accuracy     IntAcc      ...  4.670
Radial Grid Type                 RadialGrid  ... Gauss-Chebyshev
Angular Grid (max. acc.)         AngularGrid ... Lebedev-302
Angular grid pruning method      GridPruning ... 3 (G Style)
Weight generation scheme         WeightScheme... Becke
Basis function cutoff            BFCut       ...   1.0000e-011
Integration weight cutoff        WCut        ...   1.0000e-014
Grids for H and He will be reduced by one unit

# of grid points (after initial pruning)     ...  80242 (   0.0 sec)
# of grid points (after weights+screening)   ...  72779 (   0.1 sec)
nearest neighbour list constructed           ...    0.0 sec
Grid point re-assignment to atoms done       ...    0.0 sec
Grid point division into batches done        ...    0.2 sec
Reduced shell lists constructed in    0.5 sec

Total number of grid points                  ...    72779
Total number of batches                      ...     1146
Average number of points per batch           ...       63
Average number of grid points per atom       ...     4281
Average number of shells per batch           ...    50.88 (67.84%)
Average number of basis functions per batch  ...   103.54 (65.95%)
Average number of large shells per batch     ...    39.06 (76.76%)
Average number of large basis fcns per batch ...    76.70 (74.08%)
Maximum spatial batch extension              ...  18.49, 16.97, 18.91 au
Average spatial batch extension              ...   2.37,  2.32,  2.39 au

Final grid set up in    0.6 sec
Final integration                            ... done (   0.6 sec)
Change in XC energy                          ...     0.000399540
Integrated number of electrons               ...    64.000124299
Previous integrated no of electrons          ...    63.999337810
Total Energy       :         -437.46594550 Eh          -11904.05357 eV
  Last Energy change         ...  -1.3415e-009  Tolerance :  1.0000e-008
  Last MAX-Density change    ...   7.9993e-006  Tolerance :  1.0000e-007
             **** THE GBW FILE WAS UPDATED (threonine.gbw) ****
             **** DENSITY FILE WAS UPDATED (threonine.scfp.tmp) ****
             **** ENERGY FILE WAS UPDATED (threonine.en.tmp) ****
Total SCF time: 0 days 0 hours 0 min 26 sec 

-------------------------   --------------------
FINAL SINGLE POINT ENERGY      -437.465945503538
-------------------------   --------------------

------------------------------------------------------------------------------
                         ORCA SCF GRADIENT CALCULATION
------------------------------------------------------------------------------

Gradient of the Kohn-Sham DFT energy:
Kohn-Sham wavefunction type      ... RKS
Hartree-Fock exchange scaling    ...    0.250
Number of operators              ...    1
Number of atoms                  ...   17
Basis set dimensions             ...  157
Integral neglect threshold       ... 2.5e-011
Integral primitive cutoff        ... 2.5e-012

Nuclear repulsion gradient       ... done
One Electron Gradient            
  ECP gradient                   ... done
Pre-screening matrix             ... done
Starting the two electron gradient:
Two electron gradient done
Exchange-correlation gradient    ... done

------------------
CARTESIAN GRADIENT
------------------

   1   C   :   -0.003263150    0.002036251   -0.001868273
   2   C   :    0.010248522    0.000956450    0.002886812
   3   C   :    0.001801427    0.005336037    0.001102401
   4   C   :   -0.007943569    0.002730219   -0.004095885
   5   O   :    0.005138915   -0.002581601    0.000771506
   6   O   :   -0.013046851   -0.001080349    0.006434715
   7   N   :    0.005827028   -0.009904408   -0.002002568
   8   O   :   -0.006157316   -0.003596947    0.002255231
   9   H   :   -0.000305020   -0.001363371    0.001773472
  10   H   :    0.000454159    0.000744875    0.000241346
  11   H   :   -0.000420568   -0.001098900    0.000544396
  12   H   :   -0.002693177   -0.002559795   -0.001006115
  13   H   :   -0.000369732   -0.001872397   -0.001145155
  14   H   :    0.012552596    0.006798961   -0.005308783
  15   H   :   -0.003918385    0.002926213    0.000979048
  16   H   :   -0.002593262    0.003270796    0.000918637
  17   H   :    0.004688383   -0.000742034   -0.002480784

Difference to translation invariance:
           :    0.0000000000    0.0000000000    0.0000000000

Norm of the cartesian gradient     ...    0.0319759834
RMS gradient                       ...    0.0044775333
MAX gradient                       ...    0.0130468510

-------
TIMINGS
-------

Total SCF gradient time            ...       12.114 sec

One electron gradient       ....       0.072 sec  (  0.6%)
Prescreening matrices       ....       0.065 sec  (  0.5%)
Two electron gradient       ....       8.511 sec  ( 70.3%)
XC gradient                 ....       3.367 sec  ( 27.8%)
------------------------------------------------------------------------------
                         ORCA GEOMETRY RELAXATION STEP
------------------------------------------------------------------------------

Reading the OPT-File                    .... done
Getting information on internals        .... done
Copying old internal coords+grads       .... done
Making the new internal coordinates     .... (new redundants).... done
Validating the new internal coordinates .... (new redundants).... done
Calculating the B-matrix                .... done
Calculating the G,G- and P matrices     .... done
Transforming gradient to internals      .... done
Projecting the internal gradient        .... done
Number of atoms                         ....  17
Number of internal coordinates          ....  77
Current Energy                          ....  -437.465945504 Eh
Current gradient norm                   ....     0.031975983 Eh/bohr
Maximum allowed component of the step   ....  0.300
Current trust radius                    ....  0.300
Updating the Hessian (BFGS)             .... done
Forming the augmented Hessian           .... done
Diagonalizing the augmented Hessian     .... done
Last element of RFO vector              ....  0.860403814
[...]
     28       0.110260  -0.022074  -0.470263  -0.332086   0.001888   0.002412
     29      -0.012168  -0.327085  -0.324283  -0.172458   0.002754   0.000393
     30       0.109530   0.076310   0.312397   0.251776   0.003520  -0.002825
     31       0.168274  -0.613909  -0.096550   0.036573   0.003369   0.002051
     32       0.029087   0.254552   0.173108   0.085750  -0.000049   0.000104
     33      -0.507156  -0.099392  -0.005696   0.037475   0.016464  -0.023600
     34      -0.518073  -0.015907  -0.121632  -0.128268  -0.020418  -0.001281
     35      -0.010889   0.001570  -0.083813  -0.079950  -0.015142   0.013217
     36       0.077042  -0.017034  -0.055053   0.071874  -0.035786   0.050553
     37      -0.122201   0.031820  -0.000892   0.079213  -0.035799   0.013420
     38      -0.136262   0.034190   0.033422   0.029771  -0.003798  -0.003436
     39      -0.072834   0.068189  -0.343853   0.510537   0.004596  -0.352216
     40      -0.056856   0.060689  -0.318787   0.471716   0.002749  -0.293339
     41      -0.047298   0.020874  -0.118007   0.162217   0.002003  -0.110238
     42       0.029159  -0.001975   0.016434  -0.015399  -0.097398  -0.043849
     43       0.083247   0.001269   0.001241  -0.020614   0.417233   0.013139
     44       0.052861   0.004169  -0.009682  -0.009174   0.557167   0.040875
     45      -0.057340  -0.007434   0.009397   0.013870  -0.145054  -0.059724
     46      -0.082402   0.006110  -0.007451   0.048414   0.642158   0.019586
     47      -0.014995  -0.004283   0.004173   0.002541  -0.249779  -0.028835
     48       0.244627  -0.017096   0.003797   0.074041   0.002380  -0.008828
     49       0.367798  -0.039357   0.007943   0.085962   0.004846  -0.004447
     50       0.108754  -0.024213  -0.001421   0.019075   0.002718  -0.008130
                 42         43         44         45         46         47    
      0       0.000716  -0.049342   0.007931  -0.007993  -0.009462   0.000170
      1      -0.000515   0.022199   0.001639  -0.030518  -0.084882   0.000490
      2      -0.000133  -0.013614  -0.007227   0.085034  -0.036091   0.000244
      3       0.004333   0.006998   0.032679   0.004576   0.000665  -0.000213
      4      -0.005587  -0.005715  -0.045469  -0.005800  -0.001877  -0.004467
      5       0.008728   0.008798   0.060501   0.008154   0.000456  -0.000333
      6      -0.025847   0.000202   0.003986   0.000366  -0.000372   0.000504
      7       0.053820  -0.000698  -0.008260  -0.000502  -0.000298  -0.000182
      8      -0.056639   0.000031   0.008208   0.000248   0.000252  -0.000351
      9       0.000200   0.000303   0.000356   0.000182  -0.000044   0.000394
     10       0.001048   0.000034  -0.000012   0.000077  -0.000207   0.005511
     11      -0.000194   0.000189   0.000142  -0.000019  -0.000045   0.003183
     12       0.000074  -0.000131  -0.000245  -0.000090   0.000016   0.000385
     13      -0.000314   0.000070   0.000215   0.000036   0.000083  -0.002708
     14      -0.000304   0.000019   0.000138   0.000036   0.000031  -0.001510
     15      -0.000343  -0.000001   0.000554   0.000024   0.000298  -0.042296
     16      -0.000207  -0.000088  -0.000569  -0.000104  -0.000169   0.035807
     17      -0.000044  -0.000087  -0.000584  -0.000086  -0.000163   0.029878
     18       0.000583   0.000108  -0.000214   0.000076   0.000306  -0.001436
     19      -0.000711  -0.000095   0.000345  -0.000096  -0.000166   0.000809
     20       0.001165   0.000016  -0.000052  -0.000186  -0.000317   0.000693
     21      -0.000126  -0.000294  -0.001433   0.000017   0.000174  -0.000051
     22      -0.000486  -0.000082  -0.000033   0.000007   0.000592   0.002985
     23       0.000118  -0.000350  -0.001230  -0.000325   0.000060  -0.000990
     24      -0.002332   0.107820  -0.028248   0.094450   0.289418   0.005087
     25      -0.006738   0.333522  -0.095236   0.265894   0.827736   0.004165
     26      -0.000610   0.049024  -0.018599   0.059249   0.133763   0.000112
     27      -0.001325   0.312266  -0.023370  -0.243561  -0.049557  -0.001346
     28       0.005848  -0.449835   0.029323   0.342746   0.058648   0.000263
     29      -0.008336   0.558880  -0.036661  -0.415974  -0.090544  -0.001540
     30      -0.003052   0.145428  -0.045678   0.230432  -0.135587  -0.002930
     31       0.003524  -0.148656   0.051858  -0.243328   0.132592   0.000140
     32       0.012426  -0.440674   0.139354  -0.658389   0.392821   0.002707
     33      -0.057358  -0.059413  -0.376260  -0.045878  -0.005629  -0.003110
     34       0.081733   0.080820   0.535565   0.061246   0.008616   0.008905
     35      -0.105337  -0.107900  -0.711351  -0.082950  -0.008470  -0.006839
     36       0.310939  -0.002832  -0.044121  -0.001805  -0.000671  -0.001349
     37      -0.645132   0.003986   0.092171   0.006457   0.001693   0.001078
     38       0.677145  -0.002775  -0.102418  -0.009579  -0.002466  -0.002419
     39      -0.000297  -0.000415  -0.007082  -0.000834  -0.003466   0.646210
     40       0.000162   0.000529   0.006930   0.000921   0.003848  -0.589529
     41      -0.002336   0.000679   0.008749   0.001107   0.002961  -0.478967
     42      -0.009729   0.000230   0.000848  -0.000488   0.000088   0.006831
     43       0.006795   0.000944   0.002098   0.000656   0.000756  -0.008414
     44      -0.009495  -0.000417   0.004545   0.000612  -0.000373   0.007089
     45       0.004022  -0.000164  -0.000564   0.000398   0.000990   0.006097
     46       0.003030   0.000436   0.001386   0.000378   0.000040  -0.001411
     47       0.000636  -0.000097  -0.001331   0.000236   0.000210  -0.011645
     48       0.002724   0.000886   0.009650   0.001192   0.002179   0.020294
     49      -0.004440  -0.007336  -0.001934   0.005157   0.000131  -0.015275
     50      -0.001834   0.004468   0.010755   0.001085  -0.000206   0.014647
                  48         49         50    
      0      -0.000052   0.000065   0.000455
      1      -0.000053  -0.000052  -0.000710
      2      -0.000011  -0.000007   0.000623
      3       0.000107  -0.000083  -0.001288
      4       0.000035  -0.000035   0.000785
      5      -0.000215  -0.000419  -0.001966
      6      -0.002392  -0.000349  -0.000138
      7       0.000162  -0.000717  -0.000331
      8      -0.000879   0.001218   0.000177
      9      -0.000180   0.000075  -0.000078
     10      -0.000215  -0.000029   0.000134
     11       0.000141  -0.000143   0.000041
     12      -0.000085  -0.000161   0.000057
     13      -0.000170  -0.000043  -0.000044
     14      -0.000077   0.000084  -0.000023
     15       0.000640   0.000142   0.001230
     16      -0.000686  -0.000165  -0.001056
     17      -0.000578  -0.000143  -0.000867
     18      -0.031067  -0.004311   0.000030
     19       0.050953  -0.009955  -0.000125
     20      -0.002661   0.077723  -0.000060
     21      -0.000024   0.000032  -0.035415
     22      -0.000057  -0.000053   0.041243
     23       0.000025   0.000020  -0.030536
     24      -0.000360   0.000317  -0.002682
     25       0.001182  -0.000344  -0.001657
     26       0.000573  -0.000024  -0.000370
     27       0.000137  -0.000135   0.000338
     28      -0.000179   0.000331   0.003832
     29       0.000234  -0.000028  -0.004866
     30       0.000112  -0.000091   0.000631
     31      -0.000322  -0.000136   0.000305
     32      -0.000488  -0.000146  -0.000288
     33      -0.000448   0.000592   0.004872
     34       0.000718  -0.001087  -0.005981
     35       0.001050  -0.000166   0.010021
     36       0.004361  -0.000793  -0.000643
     37      -0.007170   0.004716   0.001606
     38       0.008225  -0.006052   0.000548
     39      -0.011351  -0.003000  -0.021365
     40       0.010538   0.002906   0.016140
     41       0.008519   0.002369   0.012365
     42       0.312238  -0.210389  -0.000370
     43      -0.580479   0.361633   0.000682
     44       0.532511  -0.308072  -0.000832
     45       0.148440   0.277231   0.000151
     46      -0.116646  -0.216389  -0.000650
     47      -0.492252  -0.774675  -0.000204
     48       0.000130  -0.000559   0.572840
     49      -0.000340   0.000788  -0.648236
     50       0.000100  -0.000318   0.496651


-----------
IR SPECTRUM
-----------

 Mode    freq (cm**-1)   T**2         TX         TY         TZ
-------------------------------------------------------------------
   6:        73.29    8.258838  (  0.456645  -0.433354   2.804018)
   7:        95.50    1.490749  (  0.922060  -0.790791  -0.123309)
   8:       174.80   40.721389  ( -0.947600   0.350429  -6.300845)
   9:       229.93    0.563234  (  0.407070  -0.606211  -0.173310)
  10:       262.17   11.381271  (  2.708135  -0.360336  -1.979250)
  11:       321.15   12.261598  (  0.558271  -3.240204   1.204579)
  12:       323.16   21.557137  (  3.513025   2.861294   1.014293)
  13:       371.13    2.210507  (  1.414358  -0.194910   0.414860)
  14:       395.27   43.938857  ( -3.535866   2.048817   5.219086)
  15:       421.48   44.643946  ( -5.018801   1.353130   4.198169)
  16:       489.73   25.706886  ( -3.135971   2.427196   3.159318)
  17:       571.54    7.673796  (  1.797005  -1.153588  -1.764598)
  18:       614.48    6.490411  (  1.740069  -1.831299   0.330021)
  19:       753.79    7.786832  (  1.160977   1.711414   1.873507)
  20:       871.84    7.357371  (  2.505028  -0.868811   0.572163)
  21:       891.70   70.753607  (  4.368104   2.424081   6.767356)
  22:       909.89   84.050730  ( -5.445899  -4.235594   6.037603)
  23:       936.60   22.893099  (  3.610989   2.044446   2.382037)
  24:      1008.51   73.232108  ( -7.279935  -4.424163  -0.813288)
  25:      1042.72   52.937248  ( -3.863185  -6.037009   1.252027)
  26:      1097.94   55.570278  (  0.754991   7.222816   1.682617)
  27:      1140.93   24.614292  ( -1.380440  -4.564103  -1.370269)
  28:      1200.60    9.978083  (  2.728833   0.886067  -1.321529)
  29:      1214.12    5.686510  ( -0.407663  -1.692491  -1.629660)
  30:      1246.18   55.034775  ( -4.312374  -5.073956  -3.270042)
  31:      1296.89    4.095493  ( -0.984983   1.730738   0.360344)
  32:      1321.57    2.192975  (  1.148475   0.458653   0.814627)
  33:      1366.01    2.236716  ( -0.977646  -0.983319  -0.560364)
  34:      1382.91   14.568647  ( -1.860373   2.793374   1.817889)
  35:      1406.82    2.968511  (  0.390519   1.363617  -0.978036)
  36:      1420.52   45.162577  (  5.034494   4.438336  -0.342960)
  37:      1455.52   12.278775  (  1.789883  -0.570893   2.957900)
  38:      1464.01  126.617699  ( -7.959980  -7.032089  -3.715662)
  39:      1471.56  247.554281  ( 11.348396  10.599844   2.532093)
  40:      1655.68   26.751525  ( -2.499342   4.452354   0.825445)
  41:      1907.93  334.401424  ( -9.764867  12.879107   8.554379)
  42:      3019.98   12.940401  ( -0.049714   3.265592  -1.507925)
  43:      3051.90   10.727223  ( -2.596823   1.992706   0.113375)
  44:      3073.73   20.368674  (  1.639954  -3.114473   2.824763)
  45:      3148.13   16.881036  ( -0.367929  -1.084323   3.945872)
  46:      3198.11    1.085721  (  0.290471  -0.913163  -0.409246)
  47:      3488.19  561.282878  ( 17.341626 -11.371829 -11.455671)
  48:      3531.12    4.222844  (  1.145846  -1.583662  -0.633953)
  49:      3606.00   11.629835  (  0.372654   0.045176  -3.389531)
  50:      3845.89   45.493702  (  3.287404  -5.491186   2.129216)

The first frequency considered to be a vibration is 6
The total number of vibrations considered is 45


--------------------------
THERMOCHEMISTRY AT 298.15K
--------------------------

Temperature         ... 298.15 K
Pressure            ... 1.00 atm
Total Mass          ... 119.12 AMU

Throughout the following assumptions are being made:
  (1) The electronic state is orbitally nondegenerate
  (2) There are no thermally accessible electronically excited states
  (3) Hindered rotations indicated by low frequency modes are not
      treated as such but are treated as vibrations and this may
      cause some error
  (4) All equations used are the standard statistical mechanics
      equations for an ideal gas
  (5) All vibrations are strictly harmonic

freq.      73.29  E(vib)   ...       0.49 
freq.      95.50  E(vib)   ...       0.47 
freq.     174.80  E(vib)   ...       0.38 
freq.     229.93  E(vib)   ...       0.32 
freq.     262.17  E(vib)   ...       0.29 
freq.     321.15  E(vib)   ...       0.25 
freq.     323.16  E(vib)   ...       0.25 
freq.     371.13  E(vib)   ...       0.21 
freq.     395.27  E(vib)   ...       0.20 
freq.     421.48  E(vib)   ...       0.18 
freq.     489.73  E(vib)   ...       0.15 
freq.     571.54  E(vib)   ...       0.11 
freq.     614.48  E(vib)   ...       0.10 
freq.     753.79  E(vib)   ...       0.06 
freq.     871.84  E(vib)   ...       0.04 
freq.     891.70  E(vib)   ...       0.03 
freq.     909.89  E(vib)   ...       0.03 
freq.     936.60  E(vib)   ...       0.03 
freq.    1008.51  E(vib)   ...       0.02 
freq.    1042.72  E(vib)   ...       0.02 
freq.    1097.94  E(vib)   ...       0.02 
freq.    1140.93  E(vib)   ...       0.01 
freq.    1200.60  E(vib)   ...       0.01 
freq.    1214.12  E(vib)   ...       0.01 
freq.    1246.18  E(vib)   ...       0.01 
freq.    1296.89  E(vib)   ...       0.01 
freq.    1321.57  E(vib)   ...       0.01 
freq.    1366.01  E(vib)   ...       0.01 
freq.    1382.91  E(vib)   ...       0.01 
freq.    1406.82  E(vib)   ...       0.00 
freq.    1420.52  E(vib)   ...       0.00 
freq.    1455.52  E(vib)   ...       0.00 
freq.    1464.01  E(vib)   ...       0.00 
freq.    1471.56  E(vib)   ...       0.00 
freq.    1655.68  E(vib)   ...       0.00 
freq.    1907.93  E(vib)   ...       0.00 
freq.    3019.98  E(vib)   ...       0.00 
freq.    3051.90  E(vib)   ...       0.00 
freq.    3073.73  E(vib)   ...       0.00 
freq.    3148.13  E(vib)   ...       0.00 
freq.    3198.11  E(vib)   ...       0.00 
freq.    3488.19  E(vib)   ...       0.00 
freq.    3531.12  E(vib)   ...       0.00 
freq.    3606.00  E(vib)   ...       0.00 
freq.    3845.89  E(vib)   ...       0.00 

------------
INNER ENERGY
------------

The inner energy is: U= E(el) + E(ZPE) + E(vib) + E(rot) + E(trans)
    E(el)   - is the total energy from the electronic structure calculation
              = E(kin-el) + E(nuc-el) + E(el-el) + E(nuc-nuc)
    E(ZPE)  - the the zero temperature vibrational energy from the frequency calculation
    E(vib)  - the the finite temperature correction to E(ZPE) due to population
              of excited vibrational states
    E(rot)  - is the rotational thermal energy
    E(trans)- is the translational thermal energy

Summary of contributions to the inner energy U:
Electronic energy                ...   -437.47665816 Eh
Zero point energy                ...      0.14300270 Eh      89.74 kcal/mol
Thermal vibrational correction   ...      0.00594506 Eh       3.73 kcal/mol
Thermal rotational correction    ...      0.00141627 Eh       0.89 kcal/mol
Thermal translational correction ...      0.00141627 Eh       0.89 kcal/mol
-----------------------------------------------------------------------
Total thermal energy                   -437.32487785 Eh


Summary of corrections to the electronic energy:
(perhaps to be used in another calculation)
Total thermal correction                  0.00877761 Eh       5.51 kcal/mol
Non-thermal (ZPE) correction              0.14300270 Eh      89.74 kcal/mol
-----------------------------------------------------------------------
Total correction                          0.15178030 Eh      95.24 kcal/mol


--------
ENTHALPY
--------

The enthalpy is H = U + kB*T
                kB is Boltzmann's constant
Total free energy                 ...   -437.32487785 Eh 
Thermal Enthalpy correction       ...      0.00094421 Eh       0.59 kcal/mol
-----------------------------------------------------------------------
Total Enthalpy                    ...   -437.32393364 Eh


Vibrational entropy computed according to the QRRHO of S. Grimme
Chem.Eur.J. 2012 18 9955

check  

-------
ENTROPY
-------

The entropy contributions are T*S = T*(S(el)+S(vib)+S(rot)+S(trans)
     S(el)   - electronic entropy
     S(vib)  - vibrational entropy
     S(rot)  - rotational entropy
     S(trans)- translational entropy
The entropies will be listed as mutliplied by the temperature to get
units of energy

Electronic entropy                ...      0.00000000 Eh      0.00 kcal/mol
Vibrational entropy               ...      0.00998618 Eh      6.27 kcal/mol
Rotational entropy                ...      0.01245439 Eh      7.82 kcal/mol
Translational entropy             ...      0.01911903 Eh     12.00 kcal/mol
-----------------------------------------------------------------------
Final entropy term                ...      0.04155961 Eh     26.08 kcal/mol


CAUTION: The rotational entropy is not quite correctly treated here
         because it includes a symmetry number that is not yet correctly
         implemented in ORCA!
For a nonlinear molecule the correct rotational entropy is:
    S(rot) = R*(ln(qrot/sn)+1.5)
    R    = 8.31441 J/mol/K = 1.987191683e-3 kcal/mol/K
    qrot = 358360.7270108
    sn is the rotational symmetry number. We have assumed 3 here
       if it is different for your molecule then you should correct
       the printed rotational entropy by manually evaluating the equation
       as given above

For convenience we print out the resulting values for sn=1 - 12:
 sn= 1  qrot/sn=  358360.7270 T*S(rot)=     8.47 kcal/mol T*S(tot)=    26.73 kcal/mol
 sn= 2  qrot/sn=  179180.3635 T*S(rot)=     8.06 kcal/mol T*S(tot)=    26.32 kcal/mol
 sn= 3  qrot/sn=  119453.5757 T*S(rot)=     7.82 kcal/mol T*S(tot)=    26.08 kcal/mol
 sn= 4  qrot/sn=   89590.1818 T*S(rot)=     7.64 kcal/mol T*S(tot)=    25.91 kcal/mol
 sn= 5  qrot/sn=   71672.1454 T*S(rot)=     7.51 kcal/mol T*S(tot)=    25.78 kcal/mol
 sn= 6  qrot/sn=   59726.7878 T*S(rot)=     7.40 kcal/mol T*S(tot)=    25.67 kcal/mol
 sn= 7  qrot/sn=   51194.3896 T*S(rot)=     7.31 kcal/mol T*S(tot)=    25.58 kcal/mol
 sn= 8  qrot/sn=   44795.0909 T*S(rot)=     7.23 kcal/mol T*S(tot)=    25.50 kcal/mol
 sn= 9  qrot/sn=   39817.8586 T*S(rot)=     7.16 kcal/mol T*S(tot)=    25.43 kcal/mol
 sn=10  qrot/sn=   35836.0727 T*S(rot)=     7.10 kcal/mol T*S(tot)=    25.37 kcal/mol
 sn=11  qrot/sn=   32578.2479 T*S(rot)=     7.05 kcal/mol T*S(tot)=    25.31 kcal/mol
 sn=12  qrot/sn=   29863.3939 T*S(rot)=     6.99 kcal/mol T*S(tot)=    25.26 kcal/mol


-------------------
GIBBS FREE ENTHALPY
-------------------

The Gibbs free enthalpy is G = H - T*S

Total enthalpy                    ...   -437.32393364 Eh 
Total entropy correction          ...     -0.04155961 Eh    -26.08 kcal/mol
-----------------------------------------------------------------------
Final Gibbs free enthalpy         ...   -437.36549325 Eh

For completeness - the Gibbs free enthalpy minus the electronic energy
G-E(el)                           ...      0.11116491 Eh     69.76 kcal/mol


Timings for individual modules:

Sum of individual times         ...     3485.520 sec (=  58.092 min)
GTO integral calculation        ...        5.601 sec (=   0.093 min)   0.2 %
SCF iterations                  ...      295.765 sec (=   4.929 min)   8.5 %
SCF Gradient evaluation         ...      147.605 sec (=   2.460 min)   4.2 %
Geometry relaxation             ...        4.004 sec (=   0.067 min)   0.1 %
Analytical frequency calculation...     3032.545 sec (=  50.542 min)  87.0 %
                             ****ORCA TERMINATED NORMALLY****
TOTAL RUN TIME: 0 days 0 hours 58 minutes 7 seconds 404 msec
