
                                 *****************
                                 * O   R   C   A *
                                 *****************

           --- An Ab Initio, DFT and Semiempirical electronic structure package ---

                  #######################################################
                  #                        -***-                        #
                  #  Department of molecular theory and spectroscopy    #
                  #              Directorship: Frank Neese              #
                  # Max Planck Institute for Chemical Energy Conversion #
                  #                  D-45470 Muelheim/Ruhr              #
                  #                       Germany                       #
                  #                                                     #
                  #                  All rights reserved                #
                  #                        -***-                        #
                  #######################################################


                         Program Version 4.0.0 -  RELEASE  -


 With contributions from (in alphabetic order):
   Daniel Aravena         : Magnetic Properties
   Michael Atanasov       : Ab Initio Ligand Field Theory
   Ute Becker             : Parallelization
   Martin Brehm           : Molecular dynamics
   Dmytro Bykov           : SCF Hessian
   Vijay G. Chilkuri      : MRCI spin determinant printing
   Dipayan Datta          : RHF DLPNO-CCSD density
   Achintya Kumar Dutta   : EOM-CC, STEOM-CC
   Dmitry Ganyushin       : Spin-Orbit,Spin-Spin,Magnetic field MRCI
   Yang Guo               : DLPNO-NEVPT2, CIM, IAO-localization
   Andreas Hansen         : Spin unrestricted coupled pair/coupled cluster methods
   Lee Huntington         : MR-EOM, pCC
   Robert Izsak           : Overlap fitted RIJCOSX, COSX-SCS-MP3, EOM
   Christian Kollmar      : KDIIS, OOCD, Brueckner-CCSD(T), CCSD density
   Simone Kossmann        : Meta GGA functionals, TD-DFT gradient, OOMP2, MP2 Hessian
   Martin Krupicka        : AUTO-CI
   Dagmar Lenk            : GEPOL surface
   Dimitrios Liakos       : Extrapolation schemes; parallel MDCI
   Dimitrios Manganas     : ROCIS; embedding schemes
   Dimitrios Pantazis     : SARC Basis sets
   Taras Petrenko         : DFT Hessian,TD-DFT gradient, ASA, ECA, R-Raman, ABS, FL, XAS/XES, NRVS
   Peter Pinski           : DLPNO-MP2
   Christoph Reimann      : Effective Core Potentials
   Marius Retegan         : Local ZFS, SOC
   Christoph Riplinger    : Optimizer, TS searches, QM/MM, DLPNO-CCSD(T), (RO)-DLPNO pert. Triples
   Tobias Risthaus        : Range-separated hybrids, TD-DFT gradient, RPA, STAB
   Michael Roemelt        : Restricted open shell CIS
   Masaaki Saitow         : Open-shell DLPNO
   Barbara Sandhoefer     : DKH picture change effects
   Kantharuban Sivalingam : CASSCF convergence, NEVPT2, FIC-MRCI
   Georgi Stoychev        : AutoAux
   Boris Wezisla          : Elementary symmetry handling
   Frank Wennmohs         : Technical directorship


 We gratefully acknowledge several colleagues who have allowed us to
 interface, adapt or use parts of their codes:
   Stefan Grimme, W. Hujo, H. Kruse,             : VdW corrections, initial TS optimization,
                  C. Bannwarth                     DFT functionals, gCP, sTDA/sTD-DF
   Ed Valeev                                     : LibInt (2-el integral package), F12 methods
   Garnet Chan, S. Sharma, J. Yang, R. Olivares  : DMRG
   Ulf Ekstrom                                   : XCFun DFT Library
   Mihaly Kallay                                 : mrcc  (arbitrary order and MRCC methods)
   Jiri Pittner, Ondrej Demel                    : Mk-CCSD
   Frank Weinhold                                : gennbo (NPA and NBO analysis)
   Christopher J. Cramer and Donald G. Truhlar   : smd solvation model


 Your calculation uses the libint2 library for the computation of 2-el integrals
 For citations please refer to: http://libint.valeyev.net

 This ORCA versions uses:
   CBLAS   interface :  Fast vector & matrix operations
   LAPACKE interface :  Fast linear algebra routines




*****************************************
The coordinations will be read from file: serine.xyz
*****************************************


Your calculation utilizes the basis: def2-SVP
   F. Weigend and R. Ahlrichs, Phys. Chem. Chem. Phys. 7, 3297 (2005).

================================================================================
                                        WARNINGS
                       Please study these warnings very carefully!
================================================================================

Warning: TCutStore was < 0. Adjusted to Thresh (uncritical)

WARNING: Geometry Optimization
  ===> : Switching off AutoStart
         For restart on a previous wavefunction, please use MOREAD

INFO   : the flag for use of LIBINT has been found!

================================================================================
                                       INPUT FILE
================================================================================
NAME = serine.inp
|  1> ! PBE0
|  2> ! opt anfreq
|  3> * xyzfile 0 1 serine.xyz **                         ****END OF INPUT****
================================================================================

                       *****************************
                       * Geometry Optimization Run *
                       *****************************

Geometry optimization settings:
Update method            Update   .... BFGS
Choice of coordinates    CoordSys .... Redundant Internals
Initial Hessian          InHess   .... Almoef's Model

Convergence Tolerances:
Energy Change            TolE     .... 5.0000e-006 Eh
Max. Gradient            TolMAXG  .... 3.0000e-004 Eh/bohr
RMS Gradient             TolRMSG  .... 1.0000e-004 Eh/bohr
Max. Displacement        TolMAXD  .... 4.0000e-003 bohr
RMS Displacement         TolRMSD  .... 2.0000e-003 bohr

------------------------------------------------------------------------------
                        ORCA OPTIMIZATION COORDINATE SETUP
------------------------------------------------------------------------------

The optimization will be done in new redundant internal coordinates
Making redundant internal coordinates   ...  (new redundants) done
Evaluating the initial hessian          ...  (Almloef) done
Evaluating the coordinates              ...  done
Calculating the B-matrix                .... done
Calculating the G-matrix                .... done
Diagonalizing the G-matrix              .... done
The first mode is                       ....   23
The number of degrees of freedom        ....   36

    -----------------------------------------------------------------
                    Redundant Internal Coordinates


    -----------------------------------------------------------------
         Definition                    Initial Value    Approx d2E/dq
    -----------------------------------------------------------------
      1. B(C   1,C   0)                  1.5395         0.360818   
      2. B(C   2,C   1)                  1.5226         0.383815   
      3. B(O   3,C   2)                  1.2219         1.037765   
      4. B(O   4,C   2)                  1.3510         0.645726   
      5. B(N   5,C   1)                  1.4658         0.423582   
      6. B(O   6,C   0)                  1.4026         0.534356   
      7. B(H   7,C   0)                  1.1157         0.327618   
      8. B(H   8,C   0)                  1.1110         0.333307   
      9. B(H   9,C   1)                  1.1127         0.331259   
     10. B(H  10,O   4)                  0.9664         0.507823   
     11. B(H  11,N   5)                  1.0462         0.378821   
     12. B(H  12,N   5)                  1.0458         0.379441   
     13. B(H  13,O   6)                  0.9926         0.461322   
     14. A(O   6,C   0,H   8)          107.6716         0.337687   
     15. A(O   6,C   0,H   7)          111.0697         0.336720   
     16. A(C   1,C   0,O   6)          111.6915         0.381744   
     17. A(H   7,C   0,H   8)          106.4232         0.283139   
     18. A(C   1,C   0,H   8)          109.1176         0.318425   
     19. A(C   1,C   0,H   7)          110.6627         0.317533   
     20. A(C   2,C   1,H   9)          108.1758         0.321332   
     21. A(C   0,C   1,H   9)          108.7592         0.318106   
     22. A(C   2,C   1,N   5)          111.1612         0.370661   
     23. A(C   0,C   1,N   5)          108.6887         0.366749   
     24. A(C   0,C   1,C   2)          112.1747         0.362874   
     25. A(N   5,C   1,H   9)          107.7577         0.324620   
     26. A(C   1,C   2,O   4)          121.0361         0.398864   
     27. A(C   1,C   2,O   3)          120.4285         0.433991   
     28. A(O   3,C   2,O   4)          118.5104         0.473906   
     29. A(C   2,O   4,H  10)          122.5681         0.371203   
     30. A(H  11,N   5,H  12)          109.0980         0.290813   
     31. A(C   1,N   5,H  12)          109.8885         0.329143   
     32. A(C   1,N   5,H  11)          110.6575         0.329054   
     33. A(C   0,O   6,H  13)          106.9558         0.353553   
     34. D(H   9,C   1,C   0,O   6)    -56.9819         0.010442   
     35. D(N   5,C   1,C   0,H   7)     61.6597         0.010442   
     36. D(H   9,C   1,C   0,H   8)     61.9417         0.010442   
     37. D(H   9,C   1,C   0,H   7)    178.7191         0.010442   
     38. D(N   5,C   1,C   0,H   8)    -55.1178         0.010442   
     39. D(C   2,C   1,C   0,O   6)     62.6333         0.010442   
     40. D(N   5,C   1,C   0,O   6)   -174.0414         0.010442   
     41. D(C   2,C   1,C   0,H   7)    -61.6657         0.010442   
     42. D(C   2,C   1,C   0,H   8)   -178.4431         0.010442   
     43. D(O   4,C   2,C   1,N   5)    173.2396         0.010979   
     44. D(O   4,C   2,C   1,C   0)    -64.8353         0.010979   
     45. D(O   3,C   2,C   1,H   9)   -123.0340         0.010979   
     46. D(O   3,C   2,C   1,N   5)     -4.9147         0.010979   
     47. D(O   4,C   2,C   1,H   9)     55.1203         0.010979   
     48. D(O   3,C   2,C   1,C   0)    117.0104         0.010979   
     49. D(H  10,O   4,C   2,O   3)    175.1716         0.030783   
     50. D(H  10,O   4,C   2,C   1)     -3.0173         0.030783   
     51. D(H  12,N   5,C   1,C   2)    -60.0764         0.015298   
     52. D(H  12,N   5,C   1,C   0)    175.9928         0.015298   
     53. D(H  11,N   5,C   1,H   9)    178.8418         0.015298   
     54. D(H  11,N   5,C   1,C   2)     60.4701         0.015298   
     55. D(H  12,N   5,C   1,H   9)     58.2953         0.015298   
     56. D(H  11,N   5,C   1,C   0)    -63.4606         0.015298   
     57. D(H  13,O   6,C   0,H   8)    144.2867         0.022692   
     58. D(H  13,O   6,C   0,H   7)     28.1359         0.022692   
     59. D(H  13,O   6,C   0,C   1)    -95.9346         0.022692   
    -----------------------------------------------------------------

Number of atoms                         .... 14
Number of degrees of freedom            .... 59

         *************************************************************
         *                GEOMETRY OPTIMIZATION CYCLE   1            *
         *************************************************************
---------------------------------
CARTESIAN COORDINATES (ANGSTROEM)
---------------------------------
  C      1.098050   -0.070190   -0.063530
  C      0.574430   -1.182910   -0.989600
  C      1.065490   -2.560830   -0.566960
  O      0.271260   -3.418790   -0.211860
  O      2.378570   -2.875850   -0.610170
  N     -0.890140   -1.126430   -1.010140
  O      2.497200    0.020030   -0.101280
  H      0.733950   -0.222680    0.980040
  H      0.687930    0.906100   -0.399810
  H      0.936120   -0.987620   -2.023620
  H      3.049020   -2.266280   -0.946180
  H     -1.280480   -1.324040   -0.059810
  H     -1.263870   -1.830770   -1.686780
  H      2.842040   -0.506680    0.666090

----------------------------
CARTESIAN COORDINATES (A.U.)
----------------------------
  NO LB      ZA    FRAG     MASS         X           Y           Z
   0 C     6.0000    0    12.011    2.075014   -0.132640   -0.120054
   1 C     6.0000    0    12.011    1.085515   -2.235376   -1.870073
   2 C     6.0000    0    12.011    2.013484   -4.839267   -1.071399
   3 O     8.0000    0    15.999    0.512607   -6.460577   -0.400357
   4 O     8.0000    0    15.999    4.494846   -5.434569   -1.153054
   5 N     7.0000    0    14.007   -1.682121   -2.128644   -1.908888
   6 O     8.0000    0    15.999    4.719024    0.037851   -0.191391
   7 H     1.0000    0     1.008    1.386964   -0.420804    1.852007
   8 H     1.0000    0     1.008    1.299999    1.712281   -0.755531
   9 H     1.0000    0     1.008    1.769010   -1.866331   -3.824088
  10 H     1.0000    0     1.008    5.761813   -4.282649   -1.788021
  11 H     1.0000    0     1.008   -2.419757   -2.502073   -0.113025
  12 H     1.0000    0     1.008   -2.388368   -3.459654   -3.187552
  13 H     1.0000    0     1.008    5.370677   -0.957486    1.258728

--------------------------------
INTERNAL COORDINATES (ANGSTROEM)
--------------------------------
 C      0   0   0     0.000000000000     0.00000000     0.00000000
 C      1   0   0     1.539457484863     0.00000000     0.00000000
 C      2   1   0     1.522638505884   112.17474262     0.00000000
 O      3   2   1     1.221880789807   120.42849828   117.01036068
 O      3   2   1     1.351030640252   121.03608154   295.16465299
 N      2   1   3     1.465802567504   108.68865934   123.32534590
 O      1   2   3     1.402563878545   111.69145566    62.63325846
 H      1   2   3     1.115733102045   110.66268304   298.33430835
 H      1   2   3     1.111046721295   109.11755048   181.55689188
 H      2   1   3     1.112724224864   108.75920451   240.38483006
 H      5   3   2     0.966427186859   122.56814873   356.98266115
 H      6   2   1     1.046203678353   110.65750447   296.53936741
 H      6   2   1     1.045758403313   109.88852752   175.99279338
 H      7   1   2     0.992569779210   106.95575497   264.06542093

---------------------------
INTERNAL COORDINATES (A.U.)
---------------------------
 C      0   0   0     0.000000000000     0.00000000     0.00000000
 C      1   0   0     2.909153041206     0.00000000     0.00000000
 C      2   1   0     2.877369777083   112.17474262     0.00000000
 O      3   2   1     2.309020061035   120.42849828   117.01036068
 O      3   2   1     2.553077908613   121.03608154   295.16465299
 N      2   1   3     2.769965418980   108.68865934   123.32534590
 O      1   2   3     2.650461615781   111.69145566    62.63325846
 H      1   2   3     2.108430001416   110.66268304   298.33430835
 H      1   2   3     2.099574025238   109.11755048   181.55689188
 H      2   1   3     2.102744047573   108.75920451   240.38483006
 H      5   3   2     1.826282711539   122.56814873   356.98266115
 H      6   2   1     1.977038432389   110.65750447   296.53936741
 H      6   2   1     1.976196984509   109.88852752   175.99279338
 H      7   1   2     1.875685051513   106.95575497   264.06542093

---------------------
BASIS SET INFORMATION
---------------------
There are 4 groups of distinct atoms

 Group   1 Type C   : 7s4p1d contracted to 3s2p1d pattern {511/31/1}
 Group   2 Type O   : 7s4p1d contracted to 3s2p1d pattern {511/31/1}
 Group   3 Type N   : 7s4p1d contracted to 3s2p1d pattern {511/31/1}
 Group   4 Type H   : 4s1p contracted to 2s1p pattern {31/1}

Atom   0C    basis set group =>   1
Atom   1C    basis set group =>   1
Atom   2C    basis set group =>   1
Atom   3O    basis set group =>   2
Atom   4O    basis set group =>   2
Atom   5N    basis set group =>   3
Atom   6O    basis set group =>   2
Atom   7H    basis set group =>   4
Atom   8H    basis set group =>   4
Atom   9H    basis set group =>   4
Atom  10H    basis set group =>   4
Atom  11H    basis set group =>   4
Atom  12H    basis set group =>   4
Atom  13H    basis set group =>   4
-------------------------
ECP PARAMETER INFORMATION
-------------------------



------------------------------------------------------------------------------
                           ORCA GTO INTEGRAL CALCULATION
------------------------------------------------------------------------------

                         BASIS SET STATISTICS AND STARTUP INFO

 # of primitive gaussian shells          ...  119
 # of primitive gaussian functions       ...  217
 # of contracted shells                  ...   63
 # of contracted basis functions         ...  133
 Highest angular momentum                ...    2
 Maximum contraction depth               ...    5
 Integral package used                   ... LIBINT
 Integral threshhold            Thresh   ... 2.500e-011
 Primitive cut-off              TCut     ... 2.500e-012


------------------------------ INTEGRAL EVALUATION ----------------------------


 * One electron integrals 

   ECP integrals                          Pre-screening matrix                    ... done
 Shell pair data                         ... done (   0.001 sec)

Timings:
 Total evaluation time               ...     0.006 sec (   0.000 min)
 One electron matrix time            ...     0.013 sec (   0.000 min) =216.7%
 Schwartz matrix evaluation time     ...     0.081 sec (   0.001 min) =1350.0%

-------------------------------------------------------------------------------
                                 ORCA SCF
-------------------------------------------------------------------------------

------------
SCF SETTINGS
------------
Hamiltonian:
 Density Functional     Method          .... DFT(GTOs)
 Exchange Functional    Exchange        .... PBE
   PBE kappa parameter   XKappa         ....  0.804000
   PBE mue parameter    XMuePBE         ....  0.219520
 Correlation Functional Correlation     .... PBE
   PBE beta parameter  CBetaPBE         ....  0.066725
 LDA part of GGA corr.  LDAOpt          .... PW91-LDA
 Gradients option       PostSCFGGA      .... off
 Hybrid DFT is turned on
   Fraction HF Exchange ScalHFX         ....  0.250000
   Scaling of DF-GGA-X  ScalDFX         ....  0.750000
   Scaling of DF-GGA-C  ScalDFC         ....  1.000000
   Scaling of DF-LDA-C  ScalLDAC        ....  1.000000
   Perturbative correction              ....  0.000000
   NL short-range parameter             ....  6.900000


General Settings:
 Integral files         IntName         .... serine
 Hartree-Fock type      HFTyp           .... RHF
 Total Charge           Charge          ....    0
 Multiplicity           Mult            ....    1
 Number of Electrons    NEL             ....   56
 Basis Dimension        Dim             ....  133
 Nuclear Repulsion      ENuc            ....    324.0922465206 Eh

Convergence Acceleration:
 DIIS                   CNVDIIS         .... on
   Start iteration      DIISMaxIt       ....    12
   Startup error        DIISStart       ....  0.200000
   # of expansion vecs  DIISMaxEq       ....     5
   Bias factor          DIISBfac        ....   1.050
   Max. coefficient     DIISMaxC        ....  10.000
 Newton-Raphson         CNVNR           .... off
 SOSCF                  CNVSOSCF        .... on
   Start iteration      SOSCFMaxIt      ....   150
   Startup grad/error   SOSCFStart      ....  0.003300
 Level Shifting         CNVShift        .... on
   Level shift para.    LevelShift      ....    0.2500
   Turn off err/grad.   ShiftErr        ....    0.0010
 Zerner damping         CNVZerner       .... off
 Static damping         CNVDamp         .... on
   Fraction old density DampFac         ....    0.7000
   Max. Damping (<1)    DampMax         ....    0.9800
   Min. Damping (>=0)   DampMin         ....    0.0000
   Turn off err/grad.   DampErr         ....    0.1000
 Fernandez-Rico         CNVRico         .... off

SCF Procedure:
 Maximum # iterations   MaxIter         ....   125
 SCF integral mode      SCFMode         .... Direct
   Integral package                     .... LIBINT
 Reset frequeny         DirectResetFreq ....    20
 Integral Threshold     Thresh          .... 2.500e-011 Eh
 Primitive CutOff       TCut            .... 2.500e-012 Eh

Convergence Tolerance:
 Convergence Check Mode ConvCheckMode   .... Total+1el-Energy
 Convergence forced     ConvForced      .... 0
 Energy Change          TolE            .... 1.000e-008 Eh
 1-El. energy change                    .... 1.000e-005 Eh
 Orbital Gradient       TolG            .... 1.000e-005
 Orbital Rotation angle TolX            .... 1.000e-005
 DIIS Error             TolErr          .... 5.000e-007


Diagonalization of the overlap matrix:
Smallest eigenvalue                        ... 1.584e-003
Time for diagonalization                   ...    0.002 sec
Threshold for overlap eigenvalues          ... 1.000e-008
Number of eigenvalues below threshold      ... 0
Time for construction of square roots      ...    0.002 sec
Total time needed                          ...    0.005 sec

-------------------
DFT GRID GENERATION
-------------------

General Integration Accuracy     IntAcc      ...  4.340
Radial Grid Type                 RadialGrid  ... Gauss-Chebyshev
Angular Grid (max. acc.)         AngularGrid ... Lebedev-110
Angular grid pruning method      GridPruning ... 3 (G Style)
Weight generation scheme         WeightScheme... Becke
Basis function cutoff            BFCut       ...   1.0000e-011
Integration weight cutoff        WCut        ...   1.0000e-014
Grids for H and He will be reduced by one unit

# of grid points (after initial pruning)     ...  17376 (   0.0 sec)
# of grid points (after weights+screening)   ...  16220 (   0.0 sec)
nearest neighbour list constructed           ...    0.0 sec
Grid point re-assignment to atoms done       ...    0.0 sec
Grid point division into batches done        ...    0.0 sec
Reduced shell lists constructed in    0.1 sec

Total number of grid points                  ...    16220
Total number of batches                      ...      260
Average number of points per batch           ...       62
Average number of grid points per atom       ...     1159
Average number of shells per batch           ...    47.69 (75.69%)
Average number of basis functions per batch  ...    99.67 (74.94%)
Average number of large shells per batch     ...    38.05 (79.80%)
Average number of large basis fcns per batch ...    77.10 (77.35%)
Maximum spatial batch extension              ...  18.30, 20.95, 19.34 au
Average spatial batch extension              ...   3.70,  3.79,  3.69 au

Time for grid setup =    0.107 sec

------------------------------
INITIAL GUESS: MODEL POTENTIAL
------------------------------
Loading Hartree-Fock densities                     ... done
Calculating cut-offs                               ... done
Setting up the integral package                    ... done
Initializing the effective Hamiltonian             ... done
Starting the Coulomb interaction                   ... done (   0.1 sec)
Reading the grid                                   ... done
Mapping shells                                     ... done
Starting the XC term evaluation                    ... done (   0.1 sec)
  promolecular density results
     # of electrons  =     55.993365457
     EX              =    -48.379306222
     EC              =     -1.871840472
     EX+EC           =    -50.251146694
Transforming the Hamiltonian                       ... done (   0.0 sec)
Diagonalizing the Hamiltonian                      ... done (   0.0 sec)
Back transforming the eigenvectors                 ... done (   0.0 sec)
Now organizing SCF variables                       ... done
                      ------------------
                      INITIAL GUESS DONE (   0.4 sec)
                      ------------------
--------------
SCF ITERATIONS
--------------
ITER       Energy         Delta-E        Max-DP      RMS-DP      [F,P]     Damp
               ***  Starting incremental Fock matrix formation  ***
  0   -397.9589218632   0.000000000000 0.14322975  0.00352117  0.2565594 0.7000
  1   -398.0822559674  -0.123334104190 0.09687662  0.00218958  0.1070860 0.7000
                               ***Turning on DIIS***
  2   -398.1252806472  -0.043024679767 0.09795850  0.00286202  0.0361987 0.0000
  3   -398.1996903792  -0.074409731984 0.07841792  0.00159070  0.0590381 0.0000
  4   -398.2134651962  -0.013774817014 0.01405084  0.00040957  0.0114439 0.0000
  5   -398.2142873782  -0.000822182023 0.00445922  0.00011827  0.0045263 0.0000
                      *** Initiating the SOSCF procedure ***
                           *** Shutting down DIIS ***
                      *** Re-Reading the Fockian *** 
                      *** Removing any level shift *** 
ITER      Energy       Delta-E        Grad      Rot      Max-DP    RMS-DP
  6   -398.21432780  -0.0000404248  0.000243  0.000243  0.000946  0.000038
               *** Restarting incremental Fock matrix formation ***
  7   -398.21433290  -0.0000050962  0.000137  0.000388  0.000576  0.000025
  8   -398.21433313  -0.0000002347  0.000133  0.000202  0.000300  0.000011
  9   -398.21433368  -0.0000005426  0.000042  0.000093  0.000099  0.000005
 10   -398.21433367   0.0000000110  0.000052  0.000055  0.000073  0.000002
 11   -398.21433370  -0.0000000337  0.000008  0.000016  0.000067  0.000001
 12   -398.21433370   0.0000000004  0.000010  0.000007  0.000033  0.000001
                  ***Gradient check signals convergence***
              ***Rediagonalizing the Fockian in SOSCF/NRSCF***

               *****************************************************
               *                     SUCCESS                       *
               *           SCF CONVERGED AFTER  13 CYCLES          *
               *****************************************************

Setting up the final grid:

General Integration Accuracy     IntAcc      ...  4.670
Radial Grid Type                 RadialGrid  ... Gauss-Chebyshev
Angular Grid (max. acc.)         AngularGrid ... Lebedev-302
Angular grid pruning method      GridPruning ... 3 (G Style)
Weight generation scheme         WeightScheme... Becke
Basis function cutoff            BFCut       ...   1.0000e-011
Integration weight cutoff        WCut        ...   1.0000e-014
Grids for H and He will be reduced by one unit

# of grid points (after initial pruning)     ...  67242 (   0.0 sec)
# of grid points (after weights+screening)   ...  61908 (   0.1 sec)
nearest neighbour list constructed           ...    0.0 sec
Grid point re-assignment to atoms done       ...    0.0 sec
Grid point division into batches done        ...    0.2 sec
Reduced shell lists constructed in    0.4 sec

Total number of grid points                  ...    61908
Total number of batches                      ...      974
Average number of points per batch           ...       63
Average number of grid points per atom       ...     4422
Average number of shells per batch           ...    43.83 (69.58%)
Average number of basis functions per batch  ...    90.80 (68.27%)
Average number of large shells per batch     ...    34.20 (78.02%)
Average number of large basis fcns per batch ...    68.46 (75.39%)
Maximum spatial batch extension              ...  18.44, 16.68, 18.85 au
Average spatial batch extension              ...   2.45,  2.47,  2.46 au

Final grid set up in    0.5 sec
Final integration                            ... done (   0.5 sec)
Change in XC energy                          ...     0.000220330
Integrated number of electrons               ...    55.999985995
Previous integrated no of electrons          ...    55.998152852

----------------
TOTAL SCF ENERGY
----------------

Total Energy       :         -398.21411337 Eh          -10835.95691 eV

Components:
Nuclear Repulsion  :          324.09224652 Eh            8818.99838 eV
Electronic Energy  :         -722.30635989 Eh          -19654.95529 eV
One Electron Energy:        -1186.94469393 Eh          -32298.40714 eV
Two Electron Energy:          464.63833404 Eh           12643.45185 eV

Virial components:
Potential Energy   :         -793.01280529 Eh          -21578.97549 eV
Kinetic Energy     :          394.79869191 Eh           10743.01857 eV
Virial Ratio       :            2.00865105


DFT components:
N(Alpha)           :       27.999992997252 electrons
N(Beta)            :       27.999992997252 electrons
N(Total)           :       55.999985994504 electrons
E(X)               :      -36.876572794119 Eh       
E(C)               :       -1.895586802689 Eh       
E(XC)              :      -38.772159596807 Eh       

---------------
SCF CONVERGENCE
---------------

  Last Energy change         ...  -2.2535e-009  Tolerance :  1.0000e-008
  Last MAX-Density change    ...   3.8232e-006  Tolerance :  1.0000e-007
  Last RMS-Density change    ...   1.0703e-007  Tolerance :  5.0000e-009
  Last Orbital Gradient      ...   5.4497e-007  Tolerance :  1.0000e-005
  Last Orbital Rotation      ...   1.1738e-006  Tolerance :  1.0000e-005

             **** THE GBW FILE WAS UPDATED (serine.gbw) ****
             **** DENSITY FILE WAS UPDATED (serine.scfp.tmp) ****
             **** ENERGY FILE WAS UPDATED (serine.en.tmp) ****
----------------
ORBITAL ENERGIES
----------------

  NO   OCC          E(Eh)            E(eV) 
   0   2.0000     -19.259321      -524.0728 
   1   2.0000     -19.234999      -523.4109 
   2   2.0000     -19.195291      -522.3304 
   3   2.0000     -14.381661      -391.3449 
   4   2.0000     -10.364293      -282.0268 
   5   2.0000     -10.300617      -280.2940 
   6   2.0000     -10.284240      -279.8484 
   7   2.0000      -1.116991       -30.3949 
   8   2.0000      -1.061441       -28.8833 
   9   2.0000      -1.029138       -28.0043 
  10   2.0000      -0.903936       -24.5974 
  11   2.0000      -0.753812       -20.5123 
  12   2.0000      -0.676826       -18.4174 
  13   2.0000      -0.644162       -17.5286 
  14   2.0000      -0.564032       -15.3481 
  15   2.0000      -0.543593       -14.7919 
  16   2.0000      -0.503954       -13.7133 
  17   2.0000      -0.481850       -13.1118 
  18   2.0000      -0.463656       -12.6167 
  19   2.0000      -0.445826       -12.1316 
  20   2.0000      -0.437819       -11.9137 
  21   2.0000      -0.403686       -10.9849 
  22   2.0000      -0.397658       -10.8208 
  23   2.0000      -0.360785        -9.8174 
  24   2.0000      -0.336706        -9.1622 
  25   2.0000      -0.310599        -8.4518 
  26   2.0000      -0.286804        -7.8043 
  27   2.0000      -0.258690        -7.0393 
  28   0.0000       0.001395         0.0379 
  29   0.0000       0.037970         1.0332 
  30   0.0000       0.066617         1.8127 
  31   0.0000       0.069526         1.8919 
  32   0.0000       0.107590         2.9277 
  33   0.0000       0.119510         3.2520 
  34   0.0000       0.147394         4.0108 
  35   0.0000       0.154958         4.2166 
  36   0.0000       0.196746         5.3537 
  37   0.0000       0.208696         5.6789 
  38   0.0000       0.236071         6.4238 
  39   0.0000       0.265239         7.2175 
  40   0.0000       0.326972         8.8974 
  41   0.0000       0.385949        10.5022 
  42   0.0000       0.430172        11.7056 
  43   0.0000       0.462098        12.5743 
  44   0.0000       0.472184        12.8488 
  45   0.0000       0.498681        13.5698 
  46   0.0000       0.550195        14.9716 
  47   0.0000       0.557343        15.1661 
  48   0.0000       0.578534        15.7427 
  49   0.0000       0.603467        16.4212 
  50   0.0000       0.610408        16.6100 
  51   0.0000       0.627472        17.0744 
  52   0.0000       0.633497        17.2383 
  53   0.0000       0.638161        17.3652 
  54   0.0000       0.668050        18.1786 
  55   0.0000       0.674789        18.3619 
  56   0.0000       0.683160        18.5897 
  57   0.0000       0.696182        18.9441 
  58   0.0000       0.711182        19.3523 
  59   0.0000       0.779742        21.2179 
  60   0.0000       0.827679        22.5223 
  61   0.0000       0.844042        22.9675 
  62   0.0000       0.917452        24.9651 
  63   0.0000       0.950048        25.8521 
  64   0.0000       0.968241        26.3472 
  65   0.0000       0.983055        26.7503 
  66   0.0000       0.992118        26.9969 
  67   0.0000       1.045990        28.4628 
  68   0.0000       1.069096        29.0916 
  69   0.0000       1.106925        30.1210 
  70   0.0000       1.146978        31.2108 
  71   0.0000       1.181787        32.1580 
  72   0.0000       1.239181        33.7198 
  73   0.0000       1.267508        34.4907 
  74   0.0000       1.309911        35.6445 
  75   0.0000       1.342077        36.5198 
  76   0.0000       1.352065        36.7916 
  77   0.0000       1.385876        37.7116 
  78   0.0000       1.408090        38.3161 
  79   0.0000       1.450730        39.4764 
  80   0.0000       1.474634        40.1268 
  81   0.0000       1.529792        41.6278 
  82   0.0000       1.569633        42.7119 
  83   0.0000       1.645003        44.7628 
  84   0.0000       1.660960        45.1970 
  85   0.0000       1.673471        45.5375 
  86   0.0000       1.712669        46.6041 
  87   0.0000       1.730275        47.0832 
  88   0.0000       1.745423        47.4954 
  89   0.0000       1.784320        48.5538 
  90   0.0000       1.795953        48.8704 
  91   0.0000       1.837663        50.0053 
  92   0.0000       1.857273        50.5390 
  93   0.0000       1.884174        51.2710 
  94   0.0000       1.899459        51.6869 
  95   0.0000       1.927034        52.4373 
  96   0.0000       1.945506        52.9399 
  97   0.0000       1.992794        54.2267 
  98   0.0000       2.021810        55.0163 
  99   0.0000       2.057320        55.9825 
 100   0.0000       2.091011        56.8993 
 101   0.0000       2.130097        57.9629 
 102   0.0000       2.175088        59.1872 
 103   0.0000       2.214394        60.2567 
 104   0.0000       2.266322        61.6698 
 105   0.0000       2.318451        63.0883 
 106   0.0000       2.339622        63.6644 
 107   0.0000       2.389933        65.0334 
 108   0.0000       2.439448        66.3807 
 109   0.0000       2.500768        68.0493 
 110   0.0000       2.653287        72.1996 
 111   0.0000       2.707165        73.6657 
 112   0.0000       2.718050        73.9619 
 113   0.0000       2.735355        74.4328 
 114   0.0000       2.792516        75.9882 
 115   0.0000       2.812436        76.5303 
 116   0.0000       2.832257        77.0696 
 117   0.0000       2.839852        77.2763 
 118   0.0000       2.940055        80.0030 
 119   0.0000       2.963377        80.6376 
 120   0.0000       3.005698        81.7892 
 121   0.0000       3.034944        82.5850 
 122   0.0000       3.047857        82.9364 
 123   0.0000       3.136496        85.3484 
 124   0.0000       3.170183        86.2651 
 125   0.0000       3.245729        88.3208 
 126   0.0000       3.284211        89.3679 
 127   0.0000       3.326090        90.5075 
 128   0.0000       3.378698        91.9390 
 129   0.0000       3.502458        95.3067 
 130   0.0000       3.642887        99.1280 
 131   0.0000       3.732551       101.5679 
 132   0.0000       3.825004       104.0837 

                    ********************************
                    * MULLIKEN POPULATION ANALYSIS *
                    ********************************

-----------------------
MULLIKEN ATOMIC CHARGES
-----------------------
   0 C :    0.166647
   1 C :   -0.096654
   2 C :    0.190267
   3 O :   -0.241780
   4 O :   -0.212894
   5 N :   -0.261932
   6 O :   -0.350829
   7 H :    0.037485
   8 H :    0.061364
   9 H :    0.065295
  10 H :    0.189230
  11 H :    0.128228
  12 H :    0.132568
  13 H :    0.193004
Sum of atomic charges:   -0.0000000

--------------------------------
MULLIKEN REDUCED ORBITAL CHARGES
--------------------------------
  0 C s       :     3.025992  s :     3.025992
      pz      :     1.011818  p :     2.744206
      px      :     0.710638
      py      :     1.021750
      dz2     :     0.011635  d :     0.063155
      dxz     :     0.013124
      dyz     :     0.005418
      dx2y2   :     0.017850
      dxy     :     0.015127
  1 C s       :     3.106205  s :     3.106205
      pz      :     1.078555  p :     2.934682
      px      :     0.871552
      py      :     0.984575
      dz2     :     0.010294  d :     0.055767
      dxz     :     0.009629
      dyz     :     0.006282
      dx2y2   :     0.014094
      dxy     :     0.015469
  2 C s       :     3.080374  s :     3.080374
      pz      :     0.823302  p :     2.597741
      px      :     0.802757
      py      :     0.971681
      dz2     :     0.011117  d :     0.131618
      dxz     :     0.024220
      dyz     :     0.013412
      dx2y2   :     0.051491
      dxy     :     0.031378
  3 O s       :     3.763748  s :     3.763748
      pz      :     1.382060  p :     4.460015
      px      :     1.565006
      py      :     1.512949
      dz2     :     0.002455  d :     0.018017
      dxz     :     0.002893
      dyz     :     0.003324
      dx2y2   :     0.003564
      dxy     :     0.005781
  4 O s       :     3.673857  s :     3.673857
      pz      :     1.719895  p :     4.527153
      px      :     1.196410
      py      :     1.610848
      dz2     :     0.001558  d :     0.011883
      dxz     :     0.001877
      dyz     :     0.001729
      dx2y2   :     0.002225
      dxy     :     0.004495
  5 N s       :     3.451840  s :     3.451840
      pz      :     1.115753  p :     3.792616
      px      :     1.081839
      py      :     1.595024
      dz2     :     0.003227  d :     0.017476
      dxz     :     0.002915
      dyz     :     0.003807
      dx2y2   :     0.004588
      dxy     :     0.002939
  6 O s       :     3.760378  s :     3.760378
      pz      :     1.548581  p :     4.577190
      px      :     1.297305
      py      :     1.731303
      dz2     :     0.002391  d :     0.013261
      dxz     :     0.002280
      dyz     :     0.002749
      dx2y2   :     0.003490
      dxy     :     0.002350
  7 H s       :     0.940974  s :     0.940974
      pz      :     0.013101  p :     0.021541
      px      :     0.003877
      py      :     0.004563
  8 H s       :     0.917582  s :     0.917582
      pz      :     0.005302  p :     0.021055
      px      :     0.003669
      py      :     0.012084
  9 H s       :     0.914285  s :     0.914285
      pz      :     0.013026  p :     0.020420
      px      :     0.003245
      py      :     0.004149
 10 H s       :     0.740446  s :     0.740446
      pz      :     0.019205  p :     0.070324
      px      :     0.026436
      py      :     0.024683
 11 H s       :     0.827911  s :     0.827911
      pz      :     0.021213  p :     0.043861
      px      :     0.009693
      py      :     0.012955
 12 H s       :     0.823580  s :     0.823580
      pz      :     0.016294  p :     0.043851
      px      :     0.009626
      py      :     0.017931
 13 H s       :     0.739659  s :     0.739659
      pz      :     0.027448  p :     0.067337
      px      :     0.016243
      py      :     0.023647


                     *******************************
                     * LOEWDIN POPULATION ANALYSIS *
                     *******************************

----------------------
LOEWDIN ATOMIC CHARGES
----------------------
   0 C :    0.061953
   1 C :   -0.056673
   2 C :    0.075783
   3 O :   -0.185096
   4 O :   -0.047263
   5 N :   -0.117798
   6 O :   -0.151126
   7 H :    0.017518
   8 H :    0.032638
   9 H :    0.042458
  10 H :    0.089797
  11 H :    0.069118
  12 H :    0.074152
  13 H :    0.094537

-------------------------------
LOEWDIN REDUCED ORBITAL CHARGES
-------------------------------
  0 C s       :     2.855870  s :     2.855870
      pz      :     1.058537  p :     2.938010
      px      :     0.824779
      py      :     1.054694
      dz2     :     0.026735  d :     0.144167
      dxz     :     0.028409
      dyz     :     0.015075
      dx2y2   :     0.039388
      dxy     :     0.034560
  1 C s       :     2.866956  s :     2.866956
      pz      :     1.068079  p :     3.059445
      px      :     0.949864
      py      :     1.041501
      dz2     :     0.024985  d :     0.130272
      dxz     :     0.018776
      dyz     :     0.017172
      dx2y2   :     0.034575
      dxy     :     0.034763
  2 C s       :     2.874269  s :     2.874269
      pz      :     0.823435  p :     2.762824
      px      :     0.905004
      py      :     1.034385
      dz2     :     0.022922  d :     0.287124
      dxz     :     0.048453
      dyz     :     0.025907
      dx2y2   :     0.116033
      dxy     :     0.073809
  3 O s       :     3.561425  s :     3.561425
      pz      :     1.390925  p :     4.593396
      px      :     1.623168
      py      :     1.579303
      dz2     :     0.004025  d :     0.030274
      dxz     :     0.004329
      dyz     :     0.004993
      dx2y2   :     0.005314
      dxy     :     0.011613
  4 O s       :     3.407017  s :     3.407017
      pz      :     1.694955  p :     4.615558
      px      :     1.276614
      py      :     1.643989
      dz2     :     0.002966  d :     0.024688
      dxz     :     0.003909
      dyz     :     0.002203
      dx2y2   :     0.005248
      dxy     :     0.010362
  5 N s       :     3.145952  s :     3.145952
      pz      :     1.189032  p :     3.932119
      px      :     1.148932
      py      :     1.594155
      dz2     :     0.008586  d :     0.039728
      dxz     :     0.008340
      dyz     :     0.007555
      dx2y2   :     0.009922
      dxy     :     0.005324
  6 O s       :     3.463491  s :     3.463491
      pz      :     1.591484  p :     4.663464
      px      :     1.345882
      py      :     1.726098
      dz2     :     0.004088  d :     0.024170
      dxz     :     0.004383
      dyz     :     0.005010
      dx2y2   :     0.006588
      dxy     :     0.004102
  7 H s       :     0.918244  s :     0.918244
      pz      :     0.038387  p :     0.064238
      px      :     0.013127
      py      :     0.012724
  8 H s       :     0.903366  s :     0.903366
      pz      :     0.014499  p :     0.063997
      px      :     0.012462
      py      :     0.037036
  9 H s       :     0.891236  s :     0.891236
      pz      :     0.038622  p :     0.066306
      px      :     0.012746
      py      :     0.014938
 10 H s       :     0.727742  s :     0.727742
      pz      :     0.053197  p :     0.182461
      px      :     0.061695
      py      :     0.067569
 11 H s       :     0.815624  s :     0.815624
      pz      :     0.055449  p :     0.115257
      px      :     0.025078
      py      :     0.034730
 12 H s       :     0.810681  s :     0.810681
      pz      :     0.037570  p :     0.115167
      px      :     0.025039
      py      :     0.052557
 13 H s       :     0.734710  s :     0.734710
      pz      :     0.074035  p :     0.170753
      px      :     0.035708
      py      :     0.061010


                      *****************************
                      * MAYER POPULATION ANALYSIS *
                      *****************************

  NA   - Mulliken gross atomic population
  ZA   - Total nuclear charge
  QA   - Mulliken gross atomic charge
  VA   - Mayer's total valence
  BVA  - Mayer's bonded valence
  FA   - Mayer's free valence

  ATOM       NA         ZA         QA         VA         BVA        FA
  0 C      5.8334     6.0000     0.1666     3.9413     3.9413    -0.0000
  1 C      6.0967     6.0000    -0.0967     3.8579     3.8579    -0.0000
  2 C      5.8097     6.0000     0.1903     4.2533     4.2533    -0.0000
  3 O      8.2418     8.0000    -0.2418     2.2404     2.2404    -0.0000
  4 O      8.2129     8.0000    -0.2129     2.1992     2.1992     0.0000
  5 N      7.2619     7.0000    -0.2619     3.0615     3.0615     0.0000
  6 O      8.3508     8.0000    -0.3508     2.0670     2.0670     0.0000
  7 H      0.9625     1.0000     0.0375     0.9812     0.9812    -0.0000
  8 H      0.9386     1.0000     0.0614     0.9882     0.9882    -0.0000
  9 H      0.9347     1.0000     0.0653     0.9798     0.9798    -0.0000
 10 H      0.8108     1.0000     0.1892     1.0321     1.0321     0.0000
 11 H      0.8718     1.0000     0.1282     1.0018     1.0018    -0.0000
 12 H      0.8674     1.0000     0.1326     0.9949     0.9949     0.0000
 13 H      0.8070     1.0000     0.1930     1.0040     1.0040     0.0000

  Mayer bond orders larger than 0.1
B(  0-C ,  1-C ) :   0.9858 B(  0-C ,  6-O ) :   1.0271 B(  0-C ,  7-H ) :   0.9565 
B(  0-C ,  8-H ) :   0.9508 B(  1-C ,  2-C ) :   0.8851 B(  1-C ,  5-N ) :   1.0951 
B(  1-C ,  9-H ) :   0.9114 B(  2-C ,  3-O ) :   2.1115 B(  2-C ,  4-O ) :   1.1790 
B(  4-O , 10-H ) :   0.9302 B(  5-N , 11-H ) :   0.9555 B(  5-N , 12-H ) :   0.9571 
B(  6-O , 13-H ) :   0.9626 

-------
TIMINGS
-------

Total SCF time: 0 days 0 hours 0 min 21 sec 

Total time                  ....      21.430 sec
Sum of individual times     ....      21.389 sec  ( 99.8%)

Fock matrix formation       ....      20.492 sec  ( 95.6%)
  XC integration            ....       2.318 sec  ( 11.3% of F)
    Basis function eval.    ....       0.612 sec  ( 26.4% of XC)
    Density eval.           ....       0.559 sec  ( 24.1% of XC)
    XC-Functional eval.     ....       0.091 sec  (  3.9% of XC)
    XC-Potential eval.      ....       0.786 sec  ( 33.9% of XC)
Diagonalization             ....       0.007 sec  (  0.0%)
Density matrix formation    ....       0.004 sec  (  0.0%)
Population analysis         ....       0.009 sec  (  0.0%)
Initial guess               ....       0.259 sec  (  1.2%)
Orbital Transformation      ....       0.000 sec  (  0.0%)
Orbital Orthonormalization  ....       0.000 sec  (  0.0%)
DIIS solution               ....       0.007 sec  (  0.0%)
SOSCF solution              ....       0.006 sec  (  0.0%)
Grid generation             ....       0.605 sec  (  2.8%)

-------------------------   --------------------
FINAL SINGLE POINT ENERGY      -398.214113371276
-------------------------   --------------------

------------------------------------------------------------------------------
                         ORCA SCF GRADIENT CALCULATION
------------------------------------------------------------------------------

Gradient of the Kohn-Sham DFT energy:
Kohn-Sham wavefunction type      ... RKS
Hartree-Fock exchange scaling    ...    0.250
Number of operators              ...    1
Number of atoms                  ...   14
Basis set dimensions             ...  133
Integral neglect threshold       ... 2.5e-011
Integral primitive cutoff        ... 2.5e-012

Nuclear repulsion gradient       ... done
One Electron Gradient            
  ECP gradient                   ... done
Pre-screening matrix             ... done
Starting the two electron gradient:
Two electron gradient done
Exchange-correlation gradient    ... done

------------------
CARTESIAN GRADIENT
------------------

   1   C   :    0.000513735   -0.004812012    0.002784104
   2   C   :    0.021540910   -0.004420855   -0.001597913
   3   C   :    0.014388457    0.029895154   -0.004521332
   4   O   :   -0.027836626   -0.023598010    0.007029324
   5   O   :    0.002541755    0.010437279   -0.006073264
   6   N   :   -0.001616232    0.005955763    0.001003075
   7   O   :   -0.015319647    0.018523892   -0.025352800
   8   H   :    0.000526564    0.001292637    0.006670515
   9   H   :    0.000325977    0.007819010    0.000338105
  10   H   :   -0.001440585   -0.001084535   -0.006260760
  11   H   :    0.015081157   -0.013208968    0.001675803
  12   H   :   -0.009157947    0.002575667    0.022947498
  13   H   :   -0.006909788   -0.013111536   -0.020626445
  14   H   :    0.007362270   -0.016263486    0.021984091

Difference to translation invariance:
           :    0.0000000000    0.0000000000    0.0000000000

Norm of the cartesian gradient     ...    0.0839688304
RMS gradient                       ...    0.0129566718
MAX gradient                       ...    0.0298951537

-------
TIMINGS
-------

Total SCF gradient time            ...        8.325 sec

One electron gradient       ....       0.054 sec  (  0.6%)
Prescreening matrices       ....       0.046 sec  (  0.6%)
Two electron gradient       ....       5.577 sec  ( 67.0%)
XC gradient                 ....       2.575 sec  ( 30.9%)
------------------------------------------------------------------------------
                         ORCA GEOMETRY RELAXATION STEP
------------------------------------------------------------------------------

Reading the OPT-File                    .... done
Getting information on internals        .... done
Copying old internal coords+grads       .... done
Making the new internal coordinates     .... (new redundants).... done
Validating the new internal coordinates .... (new redundants).... done
Calculating the B-matrix                .... done
Calculating the G,G- and P matrices     .... done
Transforming gradient to internals      .... done
Projecting the internal gradient        .... done
Number of atoms                         ....  14
Number of internal coordinates          ....  59
Current Energy                          ....  -398.214113371 Eh
Current gradient norm                   ....     0.083968830 Eh/bohr
Maximum allowed component of the step   ....  0.300
Current trust radius                    ....  0.300
Evaluating the initial hessian          ....  (Almloef) done
Projecting the Hessian                  .... done
Forming the augmented Hessian           .... done
Diagonalizing the augmented Hessian     .... done
Last element of RFO vector              ....  0.964674052
Lowest eigenvalues of augmented Hessian:
 -0.016401926  0.010615528  0.011000336  0.015313373  0.016317948
Length of the computed step             ....  0.273093628
The final length of the internal step   ....  0.273093628
Converting the step to cartesian space:
 Initial RMS(Int)=    0.0355537620
Transforming coordinates:
 Iter   0:  RMS(Cart)=    0.0907352201 RMS(Int)=    0.8124990085
 Iter   1:  RMS(Cart)=    0.0043974573 RMS(Int)=    0.0033492387
 Iter   2:  RMS(Cart)=    0.0006455008 RMS(Int)=    0.0003622429
 Iter   3:  RMS(Cart)=    0.0000941329 RMS(Int)=    0.0000734454
 Iter   4:  RMS(Cart)=    0.0000152075 RMS(Int)=    0.0000108733
 Iter   5:  RMS(Cart)=    0.0000024170 RMS(Int)=    0.0000017204
 Iter   6:  RMS(Cart)=    0.0000003853 RMS(Int)=    0.0000003160
 Iter   7:  RMS(Cart)=    0.0000000636 RMS(Int)=    0.0000000397
done
Storing new coordinates                 .... done

                                .--------------------.
          ----------------------|Geometry convergence|-------------------------
          Item                value                   Tolerance       Converged
          ---------------------------------------------------------------------
          RMS gradient        0.0107423785            0.0001000000      NO
          MAX gradient        0.0367086814            0.0003000000      NO
          RMS step            0.0355537620            0.0020000000      NO
          MAX step            0.0942232709            0.0040000000      NO
          ........................................................
          Max(Bonds)      0.0329      Max(Angles)    5.40
          Max(Dihed)        4.56      Max(Improp)    0.00
          ---------------------------------------------------------------------

The optimization has not yet converged - more geometry cycles are needed


    ---------------------------------------------------------------------------
                         Redundant Internal Coordinates
                            (Angstroem and degrees)

        Definition                    Value    dE/dq     Step     New-Value
    ----------------------------------------------------------------------------
     1. B(C   1,C   0)                1.5395  0.006361 -0.0089    1.5305   
     2. B(C   2,C   1)                1.5226 -0.002360  0.0031    1.5258   
     3. B(O   3,C   2)                1.2219  0.036709 -0.0184    1.2035   
     4. B(O   4,C   2)                1.3510  0.017914 -0.0143    1.3367   
     5. B(N   5,C   1)                1.4658  0.017445 -0.0210    1.4448   
     6. B(O   6,C   0)                1.4026 -0.007702  0.0074    1.4100   
     7. B(H   7,C   0)                1.1157  0.005887 -0.0091    1.1067   
     8. B(H   8,C   0)                1.1110  0.006650 -0.0101    1.1010   
     9. B(H   9,C   1)                1.1127  0.005160 -0.0079    1.1049   
    10. B(H  10,O   4)                0.9664  0.001544 -0.0016    0.9649   
    11. B(H  11,N   5)                1.0462  0.023772 -0.0318    1.0144   
    12. B(H  12,N   5)                1.0458  0.024648 -0.0329    1.0128   
    13. B(H  13,O   6)                0.9926  0.028183 -0.0312    0.9614   
    14. A(O   6,C   0,H   8)          107.67 -0.002631    0.88    108.55   
    15. A(O   6,C   0,H   7)          111.07 -0.000255    0.14    111.21   
    16. A(C   1,C   0,O   6)          111.69 -0.003360    0.58    112.28   
    17. A(H   7,C   0,H   8)          106.42 -0.001982    0.20    106.62   
    18. A(C   1,C   0,H   8)          109.12  0.004692   -0.91    108.20   
    19. A(C   1,C   0,H   7)          110.66  0.003555   -0.88    109.78   
    20. A(C   2,C   1,H   9)          108.18  0.000082   -0.57    107.60   
    21. A(C   0,C   1,H   9)          108.76  0.001245   -1.36    107.40   
    22. A(C   2,C   1,N   5)          111.16 -0.007023    2.20    113.36   
    23. A(C   0,C   1,N   5)          108.69 -0.001944    0.80    109.49   
    24. A(C   0,C   1,C   2)          112.17  0.006813   -1.39    110.79   
    25. A(N   5,C   1,H   9)          107.76  0.000801    0.30    108.05   
    26. A(C   1,C   2,O   4)          121.04  0.023666   -3.11    117.93   
    27. A(C   1,C   2,O   3)          120.43 -0.017527    2.38    122.80   
    28. A(O   3,C   2,O   4)          118.51 -0.006210    0.86    119.37   
    29. A(C   2,O   4,H  10)          122.57  0.036521   -5.40    117.17   
    30. A(H  11,N   5,H  12)          109.10  0.003934   -2.11    106.99   
    31. A(C   1,N   5,H  12)          109.89 -0.001515   -0.39    109.50   
    32. A(C   1,N   5,H  11)          110.66  0.003173   -1.16    109.50   
    33. A(C   0,O   6,H  13)          106.96 -0.004929    0.76    107.72   
    34. D(H   9,C   1,C   0,O   6)    -56.98 -0.000026   -1.14    -58.13   
    35. D(N   5,C   1,C   0,H   7)     61.66 -0.000442   -1.15     60.51   
    36. D(H   9,C   1,C   0,H   8)     61.94 -0.002326   -0.29     61.65   
    37. D(H   9,C   1,C   0,H   7)    178.72  0.000124   -1.11    177.61   
    38. D(N   5,C   1,C   0,H   8)    -55.12 -0.002892   -0.33    -55.45   
    39. D(C   2,C   1,C   0,O   6)     62.63  0.005140   -3.62     59.01   
    40. D(N   5,C   1,C   0,O   6)   -174.04 -0.000593   -1.19   -175.23   
    41. D(C   2,C   1,C   0,H   7)    -61.67  0.005290   -3.59    -65.25   
    42. D(C   2,C   1,C   0,H   8)   -178.44  0.002840   -2.77   -181.21   
    43. D(O   4,C   2,C   1,N   5)    173.24 -0.001745    2.92    176.16   
    44. D(O   4,C   2,C   1,C   0)    -64.84 -0.004486    4.56    -60.27   
    45. D(O   3,C   2,C   1,H   9)   -123.03  0.004036   -3.29   -126.33   
    46. D(O   3,C   2,C   1,N   5)     -4.91  0.000995   -2.01     -6.93   
    47. D(O   4,C   2,C   1,H   9)     55.12  0.001296    1.64     56.76   
    48. D(O   3,C   2,C   1,C   0)    117.01 -0.001746   -0.37    116.64   
    49. D(H  10,O   4,C   2,O   3)    175.17 -0.002679    3.92    179.09   
    50. D(H  10,O   4,C   2,C   1)     -3.02  0.000229   -0.95     -3.97   
    51. D(H  12,N   5,C   1,C   2)    -60.08 -0.000582    0.94    -59.14   
    52. D(H  12,N   5,C   1,C   0)    175.99 -0.003148    0.67    176.66   
    53. D(H  11,N   5,C   1,H   9)    178.84  0.001942   -1.95    176.90   
    54. D(H  11,N   5,C   1,C   2)     60.47  0.005376   -2.69     57.78   
    55. D(H  12,N   5,C   1,H   9)     58.30 -0.004016    1.68     59.98   
    56. D(H  11,N   5,C   1,C   0)    -63.46  0.002810   -2.96    -66.42   
    57. D(H  13,O   6,C   0,H   8)    144.29 -0.001533   -0.41    143.88   
    58. D(H  13,O   6,C   0,H   7)     28.14  0.002529   -1.24     26.90   
    59. D(H  13,O   6,C   0,C   1)    -95.93  0.000553   -0.62    -96.56   
    ----------------------------------------------------------------------------

         *************************************************************
         *                GEOMETRY OPTIMIZATION CYCLE   2            *
         *************************************************************
---------------------------------
CARTESIAN COORDINATES (ANGSTROEM)
---------------------------------
  C      1.116093   -0.107313   -0.080291
  C      0.549234   -1.199662   -0.990225
  C      1.057749   -2.574228   -0.566055
  O      0.327528   -3.444113   -0.168088
  O      2.377515   -2.785536   -0.585273
  N     -0.892239   -1.105121   -1.017144
  O      2.525658   -0.077331   -0.095327
  H      0.729250   -0.238655    0.948221
  H      0.741260    0.864991   -0.435667
  H      0.924326   -1.006105   -2.011293
  H      2.932979   -2.072627   -0.923197
  H     -1.263128   -1.329647   -0.100092
  H     -1.263754   -1.791995   -1.662095
  H      2.837099   -0.579596    0.662915

----------------------------
CARTESIAN COORDINATES (A.U.)
----------------------------
  NO LB      ZA    FRAG     MASS         X           Y           Z
   0 C     6.0000    0    12.011    2.109110   -0.202792   -0.151728
   1 C     6.0000    0    12.011    1.037902   -2.267032   -1.871254
   2 C     6.0000    0    12.011    1.998856   -4.864587   -1.069689
   3 O     8.0000    0    15.999    0.618938   -6.508431   -0.317639
   4 O     8.0000    0    15.999    4.492853   -5.263900   -1.106006
   5 N     7.0000    0    14.007   -1.686088   -2.088377   -1.922124
   6 O     8.0000    0    15.999    4.772802   -0.146135   -0.180141
   7 H     1.0000    0     1.008    1.378083   -0.450992    1.791878
   8 H     1.0000    0     1.008    1.400778    1.634595   -0.823291
   9 H     1.0000    0     1.008    1.746723   -1.901262   -3.800793
  10 H     1.0000    0     1.008    5.542527   -3.916698   -1.744589
  11 H     1.0000    0     1.008   -2.386966   -2.512670   -0.189146
  12 H     1.0000    0     1.008   -2.388148   -3.386381   -3.140905
  13 H     1.0000    0     1.008    5.361341   -1.095278    1.252728

--------------------------------
INTERNAL COORDINATES (ANGSTROEM)
--------------------------------
 C      0   0   0     0.000000000000     0.00000000     0.00000000
 C      1   0   0     1.530533813984     0.00000000     0.00000000
 C      2   1   0     1.525759217261   110.74827579     0.00000000
 O      3   2   1     1.203453536162   122.74502563   116.61700153
 O      3   2   1     1.336713708314   117.87077934   299.72626107
 N      2   1   3     1.444821107227   109.50473432   125.74368475
 O      1   2   3     1.409964162625   112.27782035    59.02425670
 H      1   2   3     1.106677462349   109.77717325   294.76749324
 H      1   2   3     1.100984165151   108.19767230   178.79790454
 H      2   1   3     1.104870249149   107.37721962   242.83906282
 H      5   3   2     0.964868713087   117.16955420   356.06519544
 H      6   2   1     1.014374411229   109.47884016   293.57531394
 H      6   2   1     1.012808417447   109.47857458   176.63686101
 H      7   1   2     0.961351044593   107.71907215   263.44400438

---------------------------
INTERNAL COORDINATES (A.U.)
---------------------------
 C      0   0   0     0.000000000000     0.00000000     0.00000000
 C      1   0   0     2.892289747135     0.00000000     0.00000000
 C      2   1   0     2.883267066929   110.74827579     0.00000000
 O      3   2   1     2.274197598246   122.74502563   116.61700153
 O      3   2   1     2.526022828171   117.87077934   299.72626107
 N      2   1   3     2.730316205168   109.50473432   125.74368475
 O      1   2   3     2.664446126005   112.27782035    59.02425670
 H      1   2   3     2.091317322423   109.77717325   294.76749324
 H      1   2   3     2.080558549918   108.19767230   178.79790454
 H      2   1   3     2.087902184409   107.37721962   242.83906282
 H      5   3   2     1.823337622924   117.16955420   356.06519544
 H      6   2   1     1.916889834480   109.47884016   293.57531394
 H      6   2   1     1.913930535105   109.47857458   176.63686101
 H      7   1   2     1.816690192840   107.71907215   263.44400438


Diagonalization of the overlap matrix:
Smallest eigenvalue                        ... 1.616e-003
Time for diagonalization                   ...    0.000 sec
Threshold for overlap eigenvalues          ... 1.000e-008
Number of eigenvalues below threshold      ... 0
Time for construction of square roots      ...    0.007 sec
Total time needed                          ...    0.007 sec

-------------------
DFT GRID GENERATION
-------------------

General Integration Accuracy     IntAcc      ...  4.340
Radial Grid Type                 RadialGrid  ... Gauss-Chebyshev
Angular Grid (max. acc.)         AngularGrid ... Lebedev-110
Angular grid pruning method      GridPruning ... 3 (G Style)
Weight generation scheme         WeightScheme... Becke
Basis function cutoff            BFCut       ...   1.0000e-011
Integration weight cutoff        WCut        ...   1.0000e-014
Grids for H and He will be reduced by one unit

# of grid points (after initial pruning)     ...  17376 (   0.0 sec)
# of grid points (after weights+screening)   ...  16196 (   0.0 sec)
nearest neighbour list constructed           ...    0.0 sec
Grid point re-assignment to atoms done       ...    0.0 sec
Grid point division into batches done        ...    0.0 sec
Reduced shell lists constructed in    0.1 sec

Total number of grid points                  ...    16196
Total number of batches                      ...      260
Average number of points per batch           ...       62
Average number of grid points per atom       ...     1157
Average number of shells per batch           ...    48.19 (76.49%)
Average number of basis functions per batch  ...   101.05 (75.98%)
Average number of large shells per batch     ...    38.57 (80.04%)
Average number of large basis fcns per batch ...    78.27 (77.46%)
Maximum spatial batch extension              ...  20.89, 20.95, 18.28 au
Average spatial batch extension              ...   3.76,  3.77,  3.66 au

Time for grid setup =    0.111 sec

--------------
SCF ITERATIONS
--------------
ITER       Energy         Delta-E        Max-DP      RMS-DP      [F,P]     Damp
               ***  Starting incremental Fock matrix formation  ***
  0   -398.2132286927   0.000000000000 0.01242762  0.00040312  0.0484543 0.7000
                      *** Initiating the SOSCF procedure ***
                      *** Re-Reading the Fockian *** 
                      *** Removing any level shift *** 
ITER      Energy       Delta-E        Grad      Rot      Max-DP    RMS-DP
  1   -398.21631318  -0.0030844849  0.001760  0.001760  0.035510  0.001205
               *** Restarting incremental Fock matrix formation ***
  2   -398.22432955  -0.0080163706  0.001522  0.004535  0.007170  0.000321
  3   -398.22447418  -0.0001446364  0.001757  0.002279  0.006396  0.000177
  4   -398.22456464  -0.0000904520  0.000985  0.001908  0.002158  0.000080
  5   -398.22457060  -0.0000059684  0.000871  0.000923  0.001305  0.000046
  6   -398.22457830  -0.0000076976  0.000154  0.000319  0.000447  0.000025
  7   -398.22457963  -0.0000013318  0.000069  0.000070  0.000249  0.000010
  8   -398.22457992  -0.0000002818  0.000049  0.000042  0.000134  0.000005
  9   -398.22457996  -0.0000000459  0.000016  0.000017  0.000064  0.000002
 10   -398.22457997  -0.0000000130  0.000007  0.000005  0.000028  0.000001
 11   -398.22457998  -0.0000000020  0.000003  0.000003  0.000008  0.000000
                  ***Gradient check signals convergence***
              ***Rediagonalizing the Fockian in SOSCF/NRSCF***

               *****************************************************
               *                     SUCCESS                       *
               *           SCF CONVERGED AFTER  12 CYCLES          *
               *****************************************************

Setting up the final grid:

General Integration Accuracy     IntAcc      ...  4.670
Radial Grid Type                 RadialGrid  ... Gauss-Chebyshev
Angular Grid (max. acc.)         AngularGrid ... Lebedev-302
Angular grid pruning method      GridPruning ... 3 (G Style)
Weight generation scheme         WeightScheme... Becke
Basis function cutoff            BFCut       ...   1.0000e-011
Integration weight cutoff        WCut        ...   1.0000e-014
Grids for H and He will be reduced by one unit

# of grid points (after initial pruning)     ...  67242 (   0.0 sec)
# of grid points (after weights+screening)   ...  61792 (   0.1 sec)
nearest neighbour list constructed           ...    0.0 sec
Grid point re-assignment to atoms done       ...    0.0 sec
Grid point division into batches done        ...    0.2 sec
Reduced shell lists constructed in    0.4 sec

Total number of grid points                  ...    61792
Total number of batches                      ...      972
Average number of points per batch           ...       63
Average number of grid points per atom       ...     4414
Average number of shells per batch           ...    44.21 (70.18%)
Average number of basis functions per batch  ...    91.77 (69.00%)
Average number of large shells per batch     ...    34.69 (78.45%)
Average number of large basis fcns per batch ...    69.51 (75.75%)
Maximum spatial batch extension              ...  17.61, 17.84, 17.26 au
Average spatial batch extension              ...   2.44,  2.49,  2.44 au

Final grid set up in    0.5 sec
Final integration                            ... done (   0.5 sec)
Change in XC energy                          ...     0.000106298
Integrated number of electrons               ...    56.000110327
Previous integrated no of electrons          ...    55.998909429
Total Energy       :         -398.22447368 Eh          -10836.23883 eV
  Last Energy change         ...  -2.8649e-010  Tolerance :  1.0000e-008
  Last MAX-Density change    ...   3.8244e-006  Tolerance :  1.0000e-007
             **** THE GBW FILE WAS UPDATED (serine.gbw) ****
             **** DENSITY FILE WAS UPDATED (serine.scfp.tmp) ****
             **** ENERGY FILE WAS UPDATED (serine.en.tmp) ****
Total SCF time: 0 days 0 hours 0 min 20 sec 

-------------------------   --------------------
FINAL SINGLE POINT ENERGY      -398.224473679280
-------------------------   --------------------

------------------------------------------------------------------------------
                         ORCA SCF GRADIENT CALCULATION
------------------------------------------------------------------------------

Gradient of the Kohn-Sham DFT energy:
Kohn-Sham wavefunction type      ... RKS
Hartree-Fock exchange scaling    ...    0.250
Number of operators              ...    1
Number of atoms                  ...   14
Basis set dimensions             ...  133
Integral neglect threshold       ... 2.5e-011
Integral primitive cutoff        ... 2.5e-012

Nuclear repulsion gradient       ... done
One Electron Gradient            
  ECP gradient                   ... done
Pre-screening matrix             ... done
Starting the two electron gradient:
Two electron gradient done
Exchange-correlation gradient    ... done

------------------
CARTESIAN GRADIENT
------------------

   1   C   :   -0.003371067   -0.002564612    0.000902925
   2   C   :    0.007034814   -0.000311189    0.003026952
   3   C   :    0.004152485    0.005027784   -0.006680748
   4   O   :   -0.001987912   -0.004841256    0.003322459
   5   O   :   -0.007855595    0.012228376   -0.001167148
   6   N   :   -0.009233568   -0.007122531    0.001585531
   7   O   :   -0.000156570    0.000930300   -0.000806099
   8   H   :    0.000448685    0.000780224    0.000678367
   9   H   :    0.000272357    0.001050532    0.001049860
  10   H   :   -0.002226033   -0.001086258   -0.000308342
  11   H   :    0.009505086   -0.010257789    0.001865744
  12   H   :    0.002051413    0.004223986   -0.002246557
  13   H   :    0.002887387    0.003129673    0.000229227
  14   H   :   -0.001521482   -0.001187241   -0.001452171

Difference to translation invariance:
           :   -0.0000000000   -0.0000000000    0.0000000000

Norm of the cartesian gradient     ...    0.0285601303
RMS gradient                       ...    0.0044069238
MAX gradient                       ...    0.0122283764

-------
TIMINGS
-------

Total SCF gradient time            ...        8.909 sec

One electron gradient       ....       0.068 sec  (  0.8%)
Prescreening matrices       ....       0.049 sec  (  0.6%)
Two electron gradient       ....       6.007 sec  ( 67.4%)
XC gradient                 ....       2.709 sec  ( 30.4%)
------------------------------------------------------------------------------
                         ORCA GEOMETRY RELAXATION STEP
------------------------------------------------------------------------------

Reading the OPT-File                    .... done
Getting information on internals        .... done
Copying old internal coords+grads       .... done
Making the new internal coordinates     .... (new redundants).... done
Validating the new internal coordinates .... (new redundants).... done
Calculating the B-matrix                .... done
Calculating the G,G- and P matrices     .... done
Transforming gradient to internals      .... done
Projecting the internal gradient        .... done
Number of atoms                         ....  14
Number of internal coordinates          ....  59
Current Energy                          ....  -398.224473679 Eh
Current gradient norm                   ....     0.028560130 Eh/bohr
Maximum allowed component of the step   ....  0.300
Current trust radius                    ....  0.300
Updating the Hessian (BFGS)             .... done
Forming the augmented Hessian           .... done
Diagonalizing the augmented Hessian     .... done
Last element of RFO vector              ....  0.966575322
Lowest eigenvalues of augmented Hessian:
 -0.005314722  0.010585995  0.010994947  0.015341841  0.017675776
Length of the computed step             ....  0.265248665
The final length of the internal step   ....  0.265248665
Converting the step to cartesian space:
 Initial RMS(Int)=    0.0345324349
Transforming coordinates:
 Iter   0:  RMS(Cart)=    0.0705996750 RMS(Int)=    0.0341884718
 Iter   1:  RMS(Cart)=    0.0042778241 RMS(Int)=    0.0037020414
 Iter   2:  RMS(Cart)=    0.0007201117 RMS(Int)=    0.0004178937
 Iter   3:  RMS(Cart)=    0.0001110082 RMS(Int)=    0.0000874167
 Iter   4:  RMS(Cart)=    0.0000192657 RMS(Int)=    0.0000142057
 Iter   5:  RMS(Cart)=    0.0000032677 RMS(Int)=    0.0000021732
 Iter   6:  RMS(Cart)=    0.0000005519 RMS(Int)=    0.0000004697
 Iter   7:  RMS(Cart)=    0.0000000971 RMS(Int)=    0.0000000535
done
Storing new coordinates                 .... done

                                .--------------------.
          ----------------------|Geometry convergence|-------------------------
          Item                value                   Tolerance       Converged
          ---------------------------------------------------------------------
          Energy change      -0.0103603080            0.0000050000      NO
          RMS gradient        0.0042135014            0.0001000000      NO
          MAX gradient        0.0250946561            0.0003000000      NO
          RMS step            0.0345324349            0.0020000000      NO
          MAX step            0.1103199108            0.0040000000      NO
          ........................................................
          Max(Bonds)      0.0123      Max(Angles)    6.32
          Max(Dihed)        5.51      Max(Improp)    0.00
          ---------------------------------------------------------------------

The optimization has not yet converged - more geometry cycles are needed


    ---------------------------------------------------------------------------
                         Redundant Internal Coordinates
                            (Angstroem and degrees)

        Definition                    Value    dE/dq     Step     New-Value
    ----------------------------------------------------------------------------
     1. B(C   1,C   0)                1.5305 -0.002099  0.0017    1.5322   
     2. B(C   2,C   1)                1.5258 -0.001393  0.0032    1.5290   
     3. B(O   3,C   2)                1.2035  0.005814 -0.0087    1.1948   
     4. B(O   4,C   2)                1.3367  0.001296 -0.0051    1.3316   
     5. B(N   5,C   1)                1.4448  0.004314 -0.0123    1.4326   
     6. B(O   6,C   0)                1.4100 -0.001646  0.0040    1.4140   
     7. B(H   7,C   0)                1.1067  0.000369 -0.0030    1.1036   
     8. B(H   8,C   0)                1.1010  0.000498 -0.0035    1.0974   
     9. B(H   9,C   1)                1.1049 -0.000661 -0.0006    1.1042   
    10. B(H  10,O   4)                0.9649 -0.002777  0.0033    0.9682   
    11. B(H  11,N   5)                1.0144 -0.003717 -0.0015    1.0129   
    12. B(H  12,N   5)                1.0128 -0.003333 -0.0024    1.0104   
    13. B(H  13,O   6)                0.9614 -0.001020 -0.0065    0.9548   
    14. A(O   6,C   0,H   8)          108.55  0.000260    0.28    108.83   
    15. A(O   6,C   0,H   7)          111.22  0.001268   -0.06    111.15   
    16. A(C   1,C   0,O   6)          112.28 -0.004512    1.13    113.40   
    17. A(H   7,C   0,H   8)          106.61 -0.001194    0.16    106.76   
    18. A(C   1,C   0,H   8)          108.20  0.002909   -1.01    107.18   
    19. A(C   1,C   0,H   7)          109.78  0.001481   -0.54    109.23   
    20. A(C   2,C   1,H   9)          107.55  0.000206   -0.34    107.21   
    21. A(C   0,C   1,H   9)          107.38  0.001703   -1.21    106.17   
    22. A(C   2,C   1,N   5)          113.37  0.000070    0.78    114.15   
    23. A(C   0,C   1,N   5)          109.50 -0.000131    0.36    109.86   
    24. A(C   0,C   1,C   2)          110.75 -0.000548   -0.29    110.46   
    25. A(N   5,C   1,H   9)          108.06 -0.001208    0.64    108.70   
    26. A(C   1,C   2,O   4)          117.87  0.012325   -3.06    114.81   
    27. A(C   1,C   2,O   3)          122.75 -0.004212    1.32    124.06   
    28. A(O   3,C   2,O   4)          119.31 -0.008179    1.48    120.79   
    29. A(C   2,O   4,H  10)          117.17  0.025095   -6.32    110.85   
    30. A(H  11,N   5,H  12)          106.95  0.002527   -1.79    105.16   
    31. A(C   1,N   5,H  12)          109.48 -0.001968    0.05    109.53   
    32. A(C   1,N   5,H  11)          109.48  0.000215   -0.63    108.85   
    33. A(C   0,O   6,H  13)          107.72 -0.002317    0.67    108.39   
    34. D(H   9,C   1,C   0,O   6)    -58.14 -0.000092   -1.12    -59.25   
    35. D(N   5,C   1,C   0,H   7)     60.51  0.000944   -1.73     58.78   
    36. D(H   9,C   1,C   0,H   8)     61.64 -0.000616   -0.74     60.90   
    37. D(H   9,C   1,C   0,H   7)    177.61  0.000391   -1.45    176.16   
    38. D(N   5,C   1,C   0,H   8)    -55.46 -0.000063   -1.02    -56.48   
    39. D(C   2,C   1,C   0,O   6)     59.02  0.000855   -2.45     56.57   
    40. D(N   5,C   1,C   0,O   6)   -175.23  0.000461   -1.40   -176.63   
    41. D(C   2,C   1,C   0,H   7)    -65.23  0.001338   -2.79    -68.02   
    42. D(C   2,C   1,C   0,H   8)    178.80  0.000331   -2.07    176.72   
    43. D(O   4,C   2,C   1,N   5)    176.18  0.000569   -2.92    173.26   
    44. D(O   4,C   2,C   1,C   0)    -60.27  0.000026   -2.10    -62.38   
    45. D(O   3,C   2,C   1,H   9)   -126.33  0.000225    1.94   -124.39   
    46. D(O   3,C   2,C   1,N   5)     -6.93 -0.001099    2.97     -3.96   
    47. D(O   4,C   2,C   1,H   9)     56.78  0.001893   -3.95     52.83   
    48. D(O   3,C   2,C   1,C   0)    116.62 -0.001642    3.79    120.41   
    49. D(H  10,O   4,C   2,O   3)    179.06 -0.000436   -0.32    178.74   
    50. D(H  10,O   4,C   2,C   1)     -3.93 -0.001946    5.51      1.57   
    51. D(H  12,N   5,C   1,C   2)    -59.14 -0.000637   -0.38    -59.52   
    52. D(H  12,N   5,C   1,C   0)    176.64  0.000129   -0.83    175.81   
    53. D(H  11,N   5,C   1,H   9)    176.91  0.000887   -2.48    174.43   
    54. D(H  11,N   5,C   1,C   2)     57.80  0.001403   -2.93     54.87   
    55. D(H  12,N   5,C   1,H   9)     59.97 -0.001152    0.07     60.04   
    56. D(H  11,N   5,C   1,C   0)    -66.42  0.002169   -3.37    -69.80   
    57. D(H  13,O   6,C   0,H   8)    143.88  0.000504   -2.52    141.35   
    58. D(H  13,O   6,C   0,H   7)     26.90  0.001072   -2.85     24.05   
    59. D(H  13,O   6,C   0,C   1)    -96.56  0.001508   -2.92    -99.47   
    ----------------------------------------------------------------------------

         *************************************************************
         *                GEOMETRY OPTIMIZATION CYCLE   3            *
         *************************************************************
---------------------------------
CARTESIAN COORDINATES (ANGSTROEM)
---------------------------------
  C      1.139440   -0.118354   -0.090080
  C      0.547039   -1.217191   -0.978492
  C      1.050579   -2.591292   -0.535590
  O      0.340375   -3.481450   -0.174106
  O      2.367328   -2.764100   -0.633081
  N     -0.880230   -1.099043   -1.012422
  O      2.553165   -0.118538   -0.063617
  H      0.721884   -0.209265    0.927465
  H      0.792591    0.843237   -0.489345
  H      0.941563   -1.037207   -1.994023
  H      2.797583   -1.958959   -0.955572
  H     -1.251090   -1.353573   -0.104848
  H     -1.260158   -1.781583   -1.653246
  H      2.839501   -0.559622    0.733347

----------------------------
CARTESIAN COORDINATES (A.U.)
----------------------------
  NO LB      ZA    FRAG     MASS         X           Y           Z
[...]
     10      -0.000159  -0.006788  -0.055116   0.032626  -0.031903  -0.014051
     11       0.002230   0.008469   0.012508  -0.004026  -0.003383   0.000014
     12       0.037450   0.002490   0.128100  -0.044007   0.051084  -0.002348
     13      -0.006912   0.005867  -0.004942  -0.014892   0.015065   0.017804
     14       0.010489   0.004791   0.024834  -0.005757   0.001583  -0.003818
     15       0.136882  -0.045048   0.031351   0.043270   0.003589  -0.008977
     16       0.025339  -0.019881  -0.024637   0.005489   0.021233   0.004803
     17      -0.031722   0.010038  -0.014030  -0.044434   0.032292  -0.070122
     18       0.017903   0.007472   0.001514  -0.034772  -0.007356   0.006643
     19       0.005575   0.024344   0.002278   0.044637   0.003490  -0.017101
     20      -0.030502  -0.038475   0.029154   0.038576  -0.002946  -0.026421
     21      -0.001333  -0.620323  -0.079374  -0.152573  -0.087361  -0.351907
     22       0.263061  -0.129067  -0.180430  -0.204234  -0.123506  -0.199722
     23       0.146532  -0.137002  -0.105684  -0.169566  -0.070276  -0.105995
     24       0.461356   0.564242  -0.450688   0.232712   0.288446  -0.153843
     25       0.192481   0.169552  -0.213591   0.070717   0.228014  -0.075973
     26       0.094203   0.000447  -0.121674   0.058378   0.185332  -0.090971
     27      -0.285322   0.308711   0.272432   0.132042   0.142136  -0.594637
     28      -0.358111  -0.288965  -0.331538   0.413951   0.624667   0.210243
     29      -0.106427   0.064342   0.103222   0.267707   0.176853  -0.106994
     30       0.134576   0.033797   0.309178  -0.258016   0.411128   0.178107
     31      -0.058046  -0.011779  -0.119106   0.111867  -0.186869  -0.090340
     32       0.006944   0.003626   0.089697  -0.025767   0.077606   0.056742
     33       0.384698  -0.087120   0.202578   0.359861  -0.206539   0.312025
     34      -0.167062   0.069135  -0.019172  -0.100614  -0.020950  -0.107548
     35      -0.006856   0.031044   0.061923   0.050844  -0.077804   0.029609
     36       0.055278  -0.077471  -0.093003  -0.211652   0.175621  -0.386970
     37      -0.063452   0.055487   0.047666   0.036070  -0.095825   0.049748
     38       0.076134  -0.023051   0.009076   0.070725   0.013049   0.093872
     39      -0.334494  -0.070158   0.436171   0.458262   0.026172  -0.178421
     40       0.099091   0.021831  -0.134415  -0.097914  -0.023476   0.027062
     41       0.134747   0.018022  -0.156298  -0.185063  -0.004134   0.067270
                 30         31         32         33         34         35    
      0      -0.115093  -0.038769   0.057167   0.001275  -0.009714  -0.026302
      1      -0.101865  -0.004750  -0.036246   0.008552   0.011638   0.015479
      2      -0.087243  -0.004659  -0.041310   0.004674  -0.000955   0.063986
      3       0.110595   0.064270   0.002085   0.004824   0.013421   0.003684
      4       0.035319  -0.037649  -0.013313  -0.032378   0.040866   0.001794
      5       0.059983   0.026474  -0.000418   0.002163  -0.004372  -0.012497
      6      -0.011984  -0.138996  -0.020818  -0.005165  -0.488197   0.000026
      7       0.011046   0.089989   0.009577  -0.000988  -0.549923  -0.000824
      8      -0.011296  -0.024505  -0.002662   0.001067   0.027432   0.000108
      9      -0.016627   0.038136   0.008009   0.002600   0.289588   0.000207
     10      -0.021703   0.008023   0.004849   0.004528   0.348493   0.000372
     11       0.003847   0.002605   0.000082  -0.000689  -0.020809  -0.000082
     12      -0.003268   0.089459   0.013146   0.000308   0.039434  -0.000622
     13       0.019597  -0.076759  -0.010166   0.000096   0.050187  -0.000781
     14      -0.001919   0.019738   0.003028  -0.000212   0.000091  -0.000097
     15      -0.022079  -0.008352  -0.001749  -0.071639   0.010718   0.000203
     16      -0.004608   0.001736   0.000025  -0.020299  -0.002369  -0.000005
     17      -0.027315  -0.011862   0.000085   0.000413   0.000700   0.000221
     18      -0.012988   0.008728   0.008446   0.000081   0.000199  -0.001172
     19       0.028011   0.000474  -0.008119  -0.001638  -0.004425  -0.000468
     20       0.033656   0.003661  -0.007792  -0.002575  -0.000776  -0.000402
     21       0.423879   0.153921  -0.410836  -0.020107   0.006285   0.202174
     22       0.352197  -0.087597   0.554913  -0.016873  -0.031603   0.181556
     23       0.131331   0.019004  -0.017564  -0.000030  -0.001899  -0.862895
     24       0.324409   0.200415  -0.317117   0.002976  -0.007658   0.136690
     25       0.173317   0.065081   0.010417   0.009195   0.023744  -0.347345
     26       0.278401  -0.065171   0.619663   0.005241  -0.017378   0.114399
     27      -0.321274  -0.169447   0.021730  -0.041315  -0.033130  -0.053980
     28      -0.040942   0.082229   0.042368   0.027351   0.064456  -0.033134
     29      -0.112814  -0.032351   0.017031  -0.000950  -0.003282   0.140160
     30       0.298733  -0.790815  -0.142907   0.002948   0.413908   0.009328
     31      -0.134464   0.408529   0.066444  -0.002207  -0.228073   0.010591
     32       0.059182  -0.155618  -0.027742   0.001821   0.085755   0.000389
     33       0.121942   0.037982  -0.009147   0.522609  -0.001631   0.002320
     34      -0.008260  -0.030947   0.002556   0.288701  -0.055304   0.003299
     35       0.035563  -0.003424  -0.001822   0.388335  -0.026103   0.000324
     36      -0.163295  -0.082080   0.000393   0.485480  -0.003428   0.002554
     37       0.058080   0.001078  -0.003757   0.221177  -0.046127  -0.000759
     38       0.004551   0.023771   0.001365  -0.444707   0.037319  -0.001776
     39       0.340728  -0.045279  -0.045609  -0.015688   0.024338  -0.007512
     40      -0.085744   0.053893   0.016376   0.003005  -0.024724   0.003787
     41      -0.122022  -0.002079   0.011121   0.005561  -0.006381   0.000725
                 36         37         38         39         40         41    
      0       0.007194   0.018889  -0.000278   0.003765   0.000090  -0.000865
      1      -0.011113  -0.075659  -0.000209   0.000211   0.000179   0.000541
      2      -0.004490   0.050608  -0.000191  -0.000510   0.000251   0.001101
      3       0.028207  -0.003044  -0.000881   0.000282   0.000893  -0.000172
      4       0.015870  -0.002733   0.001947   0.000771  -0.000671  -0.000291
      5      -0.075148   0.010036  -0.001211   0.000160  -0.001378  -0.000121
      6       0.000929   0.000444   0.000215  -0.005150  -0.000001   0.000071
      7       0.000521   0.000822   0.000334  -0.001754   0.000118   0.000110
      8      -0.000392   0.000067   0.000215  -0.000432   0.000092   0.000007
      9      -0.000472  -0.000145  -0.000403   0.002421   0.000021  -0.000029
     10      -0.000486  -0.000046  -0.000116   0.001240  -0.000083  -0.000065
     11      -0.000135  -0.000014  -0.000087   0.000042  -0.000050   0.000015
     12      -0.000123   0.000115   0.001953  -0.029221   0.000345  -0.000809
     13       0.000314   0.000237   0.003954  -0.055434   0.000490  -0.001522
     14       0.000031  -0.000051   0.000023  -0.000654   0.000028  -0.000065
     15      -0.000627  -0.000019   0.038525   0.002755  -0.011437  -0.000056
     16      -0.000259   0.000304   0.039404   0.001859  -0.017737   0.000013
     17       0.001673  -0.000314  -0.023065  -0.002504  -0.075639   0.000074
     18       0.000062   0.000272   0.000130  -0.002231   0.000075   0.030711
     19       0.000089   0.000592   0.000087  -0.000806   0.000045   0.034323
     20       0.000174  -0.000575   0.000144  -0.001053   0.000053   0.042734
     21      -0.019637   0.087143   0.001180  -0.007751   0.000605  -0.004174
     22      -0.019878   0.065603   0.000748  -0.001529   0.000505  -0.000977
     23       0.092834  -0.377395  -0.000012   0.009170   0.000280  -0.000853
     24      -0.063497  -0.322367   0.000549  -0.010915   0.000505  -0.003361
     25       0.154560   0.817375   0.000097   0.005726  -0.000231   0.001598
     26      -0.044659  -0.224575  -0.000025  -0.001650  -0.000038   0.000169
     27      -0.331123   0.038491  -0.003725   0.000788  -0.003055   0.000153
     28      -0.192963   0.023307  -0.002285  -0.000075   0.000333   0.000056
     29       0.898131  -0.111244   0.009791   0.001837   0.009528  -0.001094
     30      -0.003145  -0.004640  -0.033799   0.485172  -0.004759   0.011887
     31      -0.001935  -0.002397  -0.060899   0.868538  -0.008478   0.024522
     32      -0.002650   0.002144  -0.000543   0.008007  -0.000180   0.002374
     33       0.000327   0.002055  -0.318179  -0.025328  -0.193435   0.000712
     34       0.007335  -0.000635  -0.317690  -0.022451  -0.210914   0.000562
     35      -0.013238   0.002266   0.725816   0.056099   0.415771  -0.000591
     36       0.002011  -0.000678  -0.196396  -0.012134   0.341178  -0.000186
     37      -0.004111   0.002099  -0.252891  -0.012654   0.463370  -0.000466
     38      -0.001453  -0.000034  -0.399916  -0.022522   0.638553  -0.000730
     39      -0.000671   0.002322  -0.000372   0.005823  -0.000809  -0.466883
     40      -0.000987   0.002292  -0.001624   0.018771  -0.000822  -0.549367
     41       0.000285  -0.000053  -0.001739   0.019574  -0.000993  -0.689550


-----------
IR SPECTRUM
-----------

 Mode    freq (cm**-1)   T**2         TX         TY         TZ
-------------------------------------------------------------------
   6:        73.35   12.446079  ( -0.321634  -1.510658  -3.171836)
   7:       146.91   19.155467  (  0.063685  -0.996529  -4.261260)
   8:       173.65   26.039107  (  0.702638  -1.047677   4.944470)
   9:       284.77    5.579364  ( -1.161550   0.143866   2.051699)
  10:       312.11   24.181523  (  4.841916   0.779823  -0.359509)
  11:       317.09   73.549175  (  0.249227   8.182254  -2.556907)
  12:       359.03   53.763543  ( -1.117109   4.082019  -5.987715)
  13:       433.25    6.612246  (  0.220264   2.526817  -0.422996)
  14:       556.01    2.567958  ( -1.228172  -0.240139  -1.000942)
  15:       622.70   22.317038  (  3.916844   2.012583  -1.710229)
  16:       753.63    6.671315  (  0.830895  -0.116994   2.442794)
  17:       811.25   72.800959  (  1.132814  -1.146282  -8.378766)
  18:       840.02   28.089151  (  1.973483  -2.367179  -4.311726)
  19:       921.48  148.289151  ( -8.706372   8.414228  -1.299619)
  20:      1011.30    8.308635  (  2.468797  -1.347696   0.630391)
  21:      1064.56   65.148282  ( -7.631832   2.528984   0.712503)
  22:      1114.44   38.061436  ( -6.160761  -0.324965   0.029271)
  23:      1160.55   17.961392  ( -4.159397   0.767994   0.266445)
  24:      1210.97   37.092376  ( -5.978967  -1.147965  -0.162803)
  25:      1237.50    1.090887  ( -0.567498   0.407538   0.776367)
  26:      1254.85   28.610382  ( -3.725997   2.663524  -2.762783)
  27:      1302.27   34.464566  (  5.661292  -1.245516  -0.928994)
  28:      1342.96    0.060189  ( -0.120619   0.040754  -0.209712)
  29:      1388.82    7.899532  (  2.708904  -0.686760   0.299554)
  30:      1449.29   19.833518  (  4.145488  -1.465508  -0.707627)
  31:      1471.84  325.534065  (-16.254852   7.463272  -2.369265)
  32:      1507.22    9.642782  ( -2.285272   1.975490   0.719548)
  33:      1657.94   21.865593  (  3.284853   3.218802  -0.845371)
  34:      1913.41  323.365982  (-11.430582 -13.881858  -0.042338)
  35:      3024.38   32.140861  ( -2.745431   1.935832   4.566840)
  36:      3057.53   13.802741  (  2.551498  -1.025954  -2.498002)
  37:      3106.18   25.211115  (  0.843677  -4.124239   2.736782)
  38:      3538.33   15.171578  ( -2.047859  -3.312221   0.083924)
  39:      3544.80  463.403646  (  8.960930  19.365533   2.842800)
  40:      3614.74   10.956813  (  0.791989   0.551960   3.166213)
  41:      3898.56   82.063874  ( -5.618828  -4.494977  -5.503437)

The first frequency considered to be a vibration is 6
The total number of vibrations considered is 36


--------------------------
THERMOCHEMISTRY AT 298.15K
--------------------------

Temperature         ... 298.15 K
Pressure            ... 1.00 atm
Total Mass          ... 105.09 AMU

Throughout the following assumptions are being made:
  (1) The electronic state is orbitally nondegenerate
  (2) There are no thermally accessible electronically excited states
  (3) Hindered rotations indicated by low frequency modes are not
      treated as such but are treated as vibrations and this may
      cause some error
  (4) All equations used are the standard statistical mechanics
      equations for an ideal gas
  (5) All vibrations are strictly harmonic

freq.      73.35  E(vib)   ...       0.49 
freq.     146.91  E(vib)   ...       0.41 
freq.     173.65  E(vib)   ...       0.38 
freq.     284.77  E(vib)   ...       0.28 
freq.     312.11  E(vib)   ...       0.25 
freq.     317.09  E(vib)   ...       0.25 
freq.     359.03  E(vib)   ...       0.22 
freq.     433.25  E(vib)   ...       0.17 
freq.     556.01  E(vib)   ...       0.12 
freq.     622.70  E(vib)   ...       0.09 
freq.     753.63  E(vib)   ...       0.06 
freq.     811.25  E(vib)   ...       0.05 
freq.     840.02  E(vib)   ...       0.04 
freq.     921.48  E(vib)   ...       0.03 
freq.    1011.30  E(vib)   ...       0.02 
freq.    1064.56  E(vib)   ...       0.02 
freq.    1114.44  E(vib)   ...       0.01 
freq.    1160.55  E(vib)   ...       0.01 
freq.    1210.97  E(vib)   ...       0.01 
freq.    1237.50  E(vib)   ...       0.01 
freq.    1254.85  E(vib)   ...       0.01 
freq.    1302.27  E(vib)   ...       0.01 
freq.    1342.96  E(vib)   ...       0.01 
freq.    1388.82  E(vib)   ...       0.00 
freq.    1449.29  E(vib)   ...       0.00 
freq.    1471.84  E(vib)   ...       0.00 
freq.    1507.22  E(vib)   ...       0.00 
freq.    1657.94  E(vib)   ...       0.00 
freq.    1913.41  E(vib)   ...       0.00 
freq.    3024.38  E(vib)   ...       0.00 
freq.    3057.53  E(vib)   ...       0.00 
freq.    3106.18  E(vib)   ...       0.00 
freq.    3538.33  E(vib)   ...       0.00 
freq.    3544.80  E(vib)   ...       0.00 
freq.    3614.74  E(vib)   ...       0.00 
freq.    3898.56  E(vib)   ...       0.00 

------------
INNER ENERGY
------------

The inner energy is: U= E(el) + E(ZPE) + E(vib) + E(rot) + E(trans)
    E(el)   - is the total energy from the electronic structure calculation
              = E(kin-el) + E(nuc-el) + E(el-el) + E(nuc-nuc)
    E(ZPE)  - the the zero temperature vibrational energy from the frequency calculation
    E(vib)  - the the finite temperature correction to E(ZPE) due to population
              of excited vibrational states
    E(rot)  - is the rotational thermal energy
    E(trans)- is the translational thermal energy

Summary of contributions to the inner energy U:
Electronic energy                ...   -398.23309399 Eh
Zero point energy                ...      0.11499667 Eh      72.16 kcal/mol
Thermal vibrational correction   ...      0.00473112 Eh       2.97 kcal/mol
Thermal rotational correction    ...      0.00141627 Eh       0.89 kcal/mol
Thermal translational correction ...      0.00141627 Eh       0.89 kcal/mol
-----------------------------------------------------------------------
Total thermal energy                   -398.11053365 Eh


Summary of corrections to the electronic energy:
(perhaps to be used in another calculation)
Total thermal correction                  0.00756367 Eh       4.75 kcal/mol
Non-thermal (ZPE) correction              0.11499667 Eh      72.16 kcal/mol
-----------------------------------------------------------------------
Total correction                          0.12256034 Eh      76.91 kcal/mol


--------
ENTHALPY
--------

The enthalpy is H = U + kB*T
                kB is Boltzmann's constant
Total free energy                 ...   -398.11053365 Eh 
Thermal Enthalpy correction       ...      0.00094421 Eh       0.59 kcal/mol
-----------------------------------------------------------------------
Total Enthalpy                    ...   -398.10958944 Eh


Vibrational entropy computed according to the QRRHO of S. Grimme
Chem.Eur.J. 2012 18 9955

check  

-------
ENTROPY
-------

The entropy contributions are T*S = T*(S(el)+S(vib)+S(rot)+S(trans)
     S(el)   - electronic entropy
     S(vib)  - vibrational entropy
     S(rot)  - rotational entropy
     S(trans)- translational entropy
The entropies will be listed as mutliplied by the temperature to get
units of energy

Electronic entropy                ...      0.00000000 Eh      0.00 kcal/mol
Vibrational entropy               ...      0.00797481 Eh      5.00 kcal/mol
Rotational entropy                ...      0.01205414 Eh      7.56 kcal/mol
Translational entropy             ...      0.01894160 Eh     11.89 kcal/mol
-----------------------------------------------------------------------
Final entropy term                ...      0.03897055 Eh     24.45 kcal/mol


CAUTION: The rotational entropy is not quite correctly treated here
         because it includes a symmetry number that is not yet correctly
         implemented in ORCA!
For a nonlinear molecule the correct rotational entropy is:
    S(rot) = R*(ln(qrot/sn)+1.5)
    R    = 8.31441 J/mol/K = 1.987191683e-3 kcal/mol/K
    qrot = 234539.1182342
    sn is the rotational symmetry number. We have assumed 3 here
       if it is different for your molecule then you should correct
       the printed rotational entropy by manually evaluating the equation
       as given above

For convenience we print out the resulting values for sn=1 - 12:
 sn= 1  qrot/sn=  234539.1182 T*S(rot)=     8.21 kcal/mol T*S(tot)=    25.11 kcal/mol
 sn= 2  qrot/sn=  117269.5591 T*S(rot)=     7.80 kcal/mol T*S(tot)=    24.69 kcal/mol
 sn= 3  qrot/sn=   78179.7061 T*S(rot)=     7.56 kcal/mol T*S(tot)=    24.45 kcal/mol
 sn= 4  qrot/sn=   58634.7796 T*S(rot)=     7.39 kcal/mol T*S(tot)=    24.28 kcal/mol
 sn= 5  qrot/sn=   46907.8236 T*S(rot)=     7.26 kcal/mol T*S(tot)=    24.15 kcal/mol
 sn= 6  qrot/sn=   39089.8530 T*S(rot)=     7.15 kcal/mol T*S(tot)=    24.04 kcal/mol
 sn= 7  qrot/sn=   33505.5883 T*S(rot)=     7.06 kcal/mol T*S(tot)=    23.95 kcal/mol
 sn= 8  qrot/sn=   29317.3898 T*S(rot)=     6.98 kcal/mol T*S(tot)=    23.87 kcal/mol
 sn= 9  qrot/sn=   26059.9020 T*S(rot)=     6.91 kcal/mol T*S(tot)=    23.80 kcal/mol
 sn=10  qrot/sn=   23453.9118 T*S(rot)=     6.85 kcal/mol T*S(tot)=    23.74 kcal/mol
 sn=11  qrot/sn=   21321.7380 T*S(rot)=     6.79 kcal/mol T*S(tot)=    23.68 kcal/mol
 sn=12  qrot/sn=   19544.9265 T*S(rot)=     6.74 kcal/mol T*S(tot)=    23.63 kcal/mol


-------------------
GIBBS FREE ENTHALPY
-------------------

The Gibbs free enthalpy is G = H - T*S

Total enthalpy                    ...   -398.10958944 Eh 
Total entropy correction          ...     -0.03897055 Eh    -24.45 kcal/mol
-----------------------------------------------------------------------
Final Gibbs free enthalpy         ...   -398.14855999 Eh

For completeness - the Gibbs free enthalpy minus the electronic energy
G-E(el)                           ...      0.08453400 Eh     53.05 kcal/mol


Timings for individual modules:

Sum of individual times         ...     1081.583 sec (=  18.026 min)
GTO integral calculation        ...        8.029 sec (=   0.134 min)   0.7 %
SCF iterations                  ...      319.436 sec (=   5.324 min)  29.5 %
SCF Gradient evaluation         ...      176.385 sec (=   2.940 min)  16.3 %
Geometry relaxation             ...        5.702 sec (=   0.095 min)   0.5 %
Analytical frequency calculation...      572.031 sec (=   9.534 min)  52.9 %
                             ****ORCA TERMINATED NORMALLY****
TOTAL RUN TIME: 0 days 0 hours 18 minutes 3 seconds 800 msec
