
                                 *****************
                                 * O   R   C   A *
                                 *****************

           --- An Ab Initio, DFT and Semiempirical electronic structure package ---

                  #######################################################
                  #                        -***-                        #
                  #  Department of molecular theory and spectroscopy    #
                  #              Directorship: Frank Neese              #
                  # Max Planck Institute for Chemical Energy Conversion #
                  #                  D-45470 Muelheim/Ruhr              #
                  #                       Germany                       #
                  #                                                     #
                  #                  All rights reserved                #
                  #                        -***-                        #
                  #######################################################


                         Program Version 4.0.0 -  RELEASE  -


 With contributions from (in alphabetic order):
   Daniel Aravena         : Magnetic Properties
   Michael Atanasov       : Ab Initio Ligand Field Theory
   Ute Becker             : Parallelization
   Martin Brehm           : Molecular dynamics
   Dmytro Bykov           : SCF Hessian
   Vijay G. Chilkuri      : MRCI spin determinant printing
   Dipayan Datta          : RHF DLPNO-CCSD density
   Achintya Kumar Dutta   : EOM-CC, STEOM-CC
   Dmitry Ganyushin       : Spin-Orbit,Spin-Spin,Magnetic field MRCI
   Yang Guo               : DLPNO-NEVPT2, CIM, IAO-localization
   Andreas Hansen         : Spin unrestricted coupled pair/coupled cluster methods
   Lee Huntington         : MR-EOM, pCC
   Robert Izsak           : Overlap fitted RIJCOSX, COSX-SCS-MP3, EOM
   Christian Kollmar      : KDIIS, OOCD, Brueckner-CCSD(T), CCSD density
   Simone Kossmann        : Meta GGA functionals, TD-DFT gradient, OOMP2, MP2 Hessian
   Martin Krupicka        : AUTO-CI
   Dagmar Lenk            : GEPOL surface
   Dimitrios Liakos       : Extrapolation schemes; parallel MDCI
   Dimitrios Manganas     : ROCIS; embedding schemes
   Dimitrios Pantazis     : SARC Basis sets
   Taras Petrenko         : DFT Hessian,TD-DFT gradient, ASA, ECA, R-Raman, ABS, FL, XAS/XES, NRVS
   Peter Pinski           : DLPNO-MP2
   Christoph Reimann      : Effective Core Potentials
   Marius Retegan         : Local ZFS, SOC
   Christoph Riplinger    : Optimizer, TS searches, QM/MM, DLPNO-CCSD(T), (RO)-DLPNO pert. Triples
   Tobias Risthaus        : Range-separated hybrids, TD-DFT gradient, RPA, STAB
   Michael Roemelt        : Restricted open shell CIS
   Masaaki Saitow         : Open-shell DLPNO
   Barbara Sandhoefer     : DKH picture change effects
   Kantharuban Sivalingam : CASSCF convergence, NEVPT2, FIC-MRCI
   Georgi Stoychev        : AutoAux
   Boris Wezisla          : Elementary symmetry handling
   Frank Wennmohs         : Technical directorship


 We gratefully acknowledge several colleagues who have allowed us to
 interface, adapt or use parts of their codes:
   Stefan Grimme, W. Hujo, H. Kruse,             : VdW corrections, initial TS optimization,
                  C. Bannwarth                     DFT functionals, gCP, sTDA/sTD-DF
   Ed Valeev                                     : LibInt (2-el integral package), F12 methods
   Garnet Chan, S. Sharma, J. Yang, R. Olivares  : DMRG
   Ulf Ekstrom                                   : XCFun DFT Library
   Mihaly Kallay                                 : mrcc  (arbitrary order and MRCC methods)
   Jiri Pittner, Ondrej Demel                    : Mk-CCSD
   Frank Weinhold                                : gennbo (NPA and NBO analysis)
   Christopher J. Cramer and Donald G. Truhlar   : smd solvation model


 Your calculation uses the libint2 library for the computation of 2-el integrals
 For citations please refer to: http://libint.valeyev.net

 This ORCA versions uses:
   CBLAS   interface :  Fast vector & matrix operations
   LAPACKE interface :  Fast linear algebra routines




*****************************************
The coordinations will be read from file: proline.xyz
*****************************************


Your calculation utilizes the basis: def2-SVP
   F. Weigend and R. Ahlrichs, Phys. Chem. Chem. Phys. 7, 3297 (2005).

================================================================================
                                        WARNINGS
                       Please study these warnings very carefully!
================================================================================

Warning: TCutStore was < 0. Adjusted to Thresh (uncritical)

WARNING: Geometry Optimization
  ===> : Switching off AutoStart
         For restart on a previous wavefunction, please use MOREAD

INFO   : the flag for use of LIBINT has been found!

================================================================================
                                       INPUT FILE
================================================================================
NAME = proline.inp
|  1> ! PBE0
|  2> ! opt anfreq
|  3> * xyzfile 0 1 proline.xyz **                         ****END OF INPUT****
================================================================================

                       *****************************
                       * Geometry Optimization Run *
                       *****************************

Geometry optimization settings:
Update method            Update   .... BFGS
Choice of coordinates    CoordSys .... Redundant Internals
Initial Hessian          InHess   .... Almoef's Model

Convergence Tolerances:
Energy Change            TolE     .... 5.0000e-006 Eh
Max. Gradient            TolMAXG  .... 3.0000e-004 Eh/bohr
RMS Gradient             TolRMSG  .... 1.0000e-004 Eh/bohr
Max. Displacement        TolMAXD  .... 4.0000e-003 bohr
RMS Displacement         TolRMSD  .... 2.0000e-003 bohr

------------------------------------------------------------------------------
                        ORCA OPTIMIZATION COORDINATE SETUP
------------------------------------------------------------------------------

The optimization will be done in new redundant internal coordinates
Making redundant internal coordinates   ...  (new redundants) done
Evaluating the initial hessian          ...  (Almloef) done
Evaluating the coordinates              ...  done
Calculating the B-matrix                .... done
Calculating the G-matrix                .... done
Diagonalizing the G-matrix              .... done
The first mode is                       ....   50
The number of degrees of freedom        ....   45

    -----------------------------------------------------------------
                    Redundant Internal Coordinates


    -----------------------------------------------------------------
         Definition                    Initial Value    Approx d2E/dq
    -----------------------------------------------------------------
      1. B(C   1,C   0)                  1.5092         0.403269   
      2. B(C   2,C   1)                  1.5329         0.369637   
      3. B(N   3,C   2)                  1.4726         0.413081   
      4. B(C   4,C   0)                  1.5185         0.389738   
      5. B(C   4,N   3)                  1.4713         0.415103   
      6. B(C   5,C   2)                  1.5177         0.390899   
      7. B(O   6,C   5)                  1.2218         1.037960   
      8. B(O   7,C   5)                  1.3497         0.648900   
      9. B(H   8,C   0)                  1.1124         0.331621   
     10. B(H   9,C   0)                  1.1108         0.333644   
     11. B(H  10,C   1)                  1.1152         0.328250   
     12. B(H  11,C   1)                  1.1109         0.333433   
     13. B(H  12,C   2)                  1.1133         0.330554   
     14. B(H  13,N   3)                  1.0474         0.377177   
     15. B(H  14,C   4)                  1.1160         0.327347   
     16. B(H  15,C   4)                  1.1102         0.334357   
     17. B(H  16,O   7)                  0.9675         0.505915   
     18. A(C   1,C   0,H   8)          109.5176         0.324005   
     19. A(H   8,C   0,H   9)          108.8722         0.283718   
     20. A(C   1,C   0,C   4)           99.7102         0.370831   
     21. A(C   4,C   0,H   9)          114.1019         0.322518   
     22. A(C   1,C   0,H   9)          114.9817         0.324328   
     23. A(C   4,C   0,H   8)          109.2886         0.322196   
     24. A(C   0,C   1,C   2)          100.8461         0.367474   
     25. A(H  10,C   1,H  11)          107.8599         0.283241   
     26. A(C   2,C   1,H  11)          115.3430         0.319702   
     27. A(C   0,C   1,H  11)          116.0137         0.324295   
     28. A(C   2,C   1,H  10)          108.6001         0.318886   
     29. A(C   0,C   1,H  10)          107.7209         0.323462   
     30. A(C   1,C   2,C   5)          113.5982         0.365517   
     31. A(C   5,C   2,H  12)          106.7076         0.322183   
     32. A(N   3,C   2,H  12)          112.2893         0.323172   
     33. A(C   1,C   2,H  12)          110.2878         0.319250   
     34. A(N   3,C   2,C   5)          108.3610         0.370227   
     35. A(C   1,C   2,N   3)          105.6941         0.366689   
     36. A(C   4,N   3,H  13)          109.0377         0.327722   
     37. A(C   2,N   3,H  13)          110.4569         0.327459   
     38. A(C   2,N   3,C   4)          106.1690         0.371731   
     39. A(H  14,C   4,H  15)          108.4008         0.283241   
     40. A(N   3,C   4,H  15)          112.3531         0.324038   
     41. A(C   0,C   4,H  15)          112.8646         0.322630   
     42. A(N   3,C   4,H  14)          108.8379         0.322914   
     43. A(C   0,C   4,H  14)          108.2408         0.321513   
     44. A(C   0,C   4,N   3)          106.0056         0.370348   
     45. A(O   6,C   5,O   7)          118.9324         0.474350   
     46. A(C   2,C   5,O   7)          119.8693         0.400495   
     47. A(C   2,C   5,O   6)          121.1937         0.435437   
     48. A(C   5,O   7,H  16)          121.6587         0.371275   
     49. D(H  11,C   1,C   0,C   4)    170.3825         0.012896   
     50. D(H  11,C   1,C   0,H   8)     55.7867         0.012896   
     51. D(C   2,C   1,C   0,H   8)    -69.5553         0.012896   
     52. D(C   2,C   1,C   0,C   4)     45.0405         0.012896   
     53. D(C   2,C   1,C   0,H   9)    167.5054         0.012896   
     54. D(H  10,C   1,C   0,C   4)    -68.6730         0.012896   
     55. D(H  10,C   1,C   0,H   8)    176.7312         0.012896   
     56. D(H  11,C   1,C   0,H   9)    -67.1526         0.012896   
     57. D(H  10,C   1,C   0,H   9)     53.7920         0.012896   
     58. D(C   5,C   2,C   1,H  10)   -164.0139         0.010924   
     59. D(C   5,C   2,C   1,C   0)     82.9398         0.010924   
     60. D(N   3,C   2,C   1,H  11)   -161.5259         0.010924   
     61. D(C   5,C   2,C   1,H  11)    -42.8532         0.010924   
     62. D(N   3,C   2,C   1,H  10)     77.3134         0.010924   
     63. D(N   3,C   2,C   1,C   0)    -35.7329         0.010924   
     64. D(H  12,C   2,C   1,H  11)     76.8801         0.010924   
     65. D(H  12,C   2,C   1,H  10)    -44.2806         0.010924   
     66. D(H  12,C   2,C   1,C   0)   -157.3269         0.010924   
     67. D(H  13,N   3,C   2,H  12)     13.1927         0.014554   
     68. D(H  13,N   3,C   2,C   5)    130.8006         0.014554   
     69. D(H  13,N   3,C   2,C   1)   -107.1004         0.014554   
     70. D(C   4,N   3,C   2,H  12)    131.2685         0.014554   
     71. D(C   4,N   3,C   2,C   5)   -111.1235         0.014554   
     72. D(C   4,N   3,C   2,C   1)     10.9755         0.014554   
     73. D(H  14,C   4,C   0,H   9)    -46.5253         0.012077   
     74. D(H  14,C   4,C   0,H   8)   -168.6652         0.012077   
     75. D(H  14,C   4,C   0,C   1)     76.5635         0.012077   
     76. D(N   3,C   4,C   0,H   9)   -163.1551         0.012077   
     77. D(N   3,C   4,C   0,H   8)     74.7050         0.012077   
     78. D(H  15,C   4,C   0,C   1)   -163.4575         0.012077   
     79. D(N   3,C   4,C   0,C   1)    -40.0663         0.012077   
     80. D(H  15,C   4,N   3,C   2)    141.8681         0.014695   
     81. D(H  14,C   4,N   3,H  13)     20.9413         0.014695   
     82. D(H  14,C   4,N   3,C   2)    -98.0712         0.014695   
     83. D(C   0,C   4,N   3,H  13)    137.1682         0.014695   
     84. D(C   0,C   4,N   3,C   2)     18.1557         0.014695   
     85. D(H  15,C   4,C   0,H   9)     73.4537         0.012077   
     86. D(H  15,C   4,N   3,H  13)    -99.1194         0.014695   
     87. D(H  15,C   4,C   0,H   8)    -48.6862         0.012077   
     88. D(O   7,C   5,C   2,H  12)     60.0921         0.011365   
     89. D(O   7,C   5,C   2,N   3)    -61.0301         0.011365   
     90. D(O   7,C   5,C   2,C   1)   -178.1601         0.011365   
     91. D(O   6,C   5,C   2,H  12)   -119.1153         0.011365   
     92. D(O   6,C   5,C   2,N   3)    119.7625         0.011365   
     93. D(O   6,C   5,C   2,C   1)      2.6325         0.011365   
     94. D(H  16,O   7,C   5,O   6)    179.4793         0.031111   
     95. D(H  16,O   7,C   5,C   2)      0.2541         0.031111   
    -----------------------------------------------------------------

Number of atoms                         .... 17
Number of degrees of freedom            .... 95

         *************************************************************
         *                GEOMETRY OPTIMIZATION CYCLE   1            *
         *************************************************************
---------------------------------
CARTESIAN COORDINATES (ANGSTROEM)
---------------------------------
  C     -0.774930   -1.006040   -0.267680
  C     -1.182100    0.352200    0.249060
  C     -0.005440    1.208600   -0.232380
  N      1.185290    0.349620   -0.118490
  C      0.686510   -1.009340    0.144550
  C     -0.133030    1.659960   -1.675740
  O     -1.122100    1.386900   -2.339100
  O      0.851280    2.390060   -2.241220
  H     -0.843590   -1.017190   -1.377930
  H     -1.362350   -1.857410    0.137190
  H     -1.160310    0.311980    1.363330
  H     -2.187800    0.709450   -0.059380
  H      0.078730    2.131080    0.385190
  H      1.782190    0.656100    0.685750
  H      0.739540   -1.206570    1.241660
  H      1.281010   -1.786260   -0.380320
  H      1.647970    2.635070   -1.750080

----------------------------
CARTESIAN COORDINATES (A.U.)
----------------------------
  NO LB      ZA    FRAG     MASS         X           Y           Z
   0 C     6.0000    0    12.011   -1.464405   -1.901140   -0.505842
   1 C     6.0000    0    12.011   -2.233845    0.665562    0.470655
   2 C     6.0000    0    12.011   -0.010280    2.283923   -0.439135
   3 N     7.0000    0    14.007    2.239873    0.660686   -0.223914
   4 C     6.0000    0    12.011    1.297316   -1.907376    0.273160
   5 C     6.0000    0    12.011   -0.251390    3.136870   -3.166690
   6 O     8.0000    0    15.999   -2.120462    2.620861   -4.420258
   7 O     8.0000    0    15.999    1.608686    4.516559   -4.235292
   8 H     1.0000    0     1.008   -1.594154   -1.922211   -2.603910
   9 H     1.0000    0     1.008   -2.574468   -3.509996    0.259252
  10 H     1.0000    0     1.008   -2.192668    0.589557    2.576320
  11 H     1.0000    0     1.008   -4.134343    1.340666   -0.112212
  12 H     1.0000    0     1.008    0.148778    4.027158    0.727904
  13 H     1.0000    0     1.008    3.367851    1.239849    1.295880
  14 H     1.0000    0     1.008    1.397528   -2.280087    2.346397
  15 H     1.0000    0     1.008    2.420758   -3.375542   -0.718701
  16 H     1.0000    0     1.008    3.114212    4.979561   -3.307172

--------------------------------
INTERNAL COORDINATES (ANGSTROEM)
--------------------------------
 C      0   0   0     0.000000000000     0.00000000     0.00000000
 C      1   0   0     1.509179755397     0.00000000     0.00000000
 C      2   1   0     1.532884271300   100.84612508     0.00000000
 N      3   2   1     1.472635564354   105.69405954   324.26709573
 C      4   3   2     1.471306838019   106.16902552    10.97547377
 C      3   2   1     1.517660418967   113.59824741    82.93975734
 O      6   3   2     1.221829660018   121.19368671     2.63251649
 O      6   3   2     1.349696194149   119.86930284   181.83990309
 H      1   2   3     1.112426887755   109.51760759   290.44467923
 H      1   2   3     1.110771286179   114.98170513   167.50538961
 H      2   1   3     1.115208538974   107.72088242   246.28656590
 H      2   1   3     1.110943421647   116.01368547   125.34200547
 H      3   2   1     1.113304380751   110.28781470   202.67308125
 H      4   3   2     1.047387978736   110.45694904   252.89959785
 H      5   4   3     1.115957976763   108.83789121   261.92876555
 H      5   4   3     1.110190728344   112.35313128   141.86805357
 H      8   6   3     0.967451991470   121.65868511     0.25405164

---------------------------
INTERNAL COORDINATES (A.U.)
---------------------------
 C      0   0   0     0.000000000000     0.00000000     0.00000000
 C      1   0   0     2.851936424558     0.00000000     0.00000000
 C      2   1   0     2.896731467753   100.84612508     0.00000000
 N      3   2   1     2.782877911701   105.69405954   324.26709573
 C      4   3   2     2.780366982821   106.16902552    10.97547377
 C      3   2   1     2.867962556140   113.59824741    82.93975734
 O      6   3   2     2.308923439736   121.19368671     2.63251649
 O      6   3   2     2.550556170937   119.86930284   181.83990309
 H      1   2   3     2.102182161867   109.51760759   290.44467923
 H      1   2   3     2.099053528302   114.98170513   167.50538961
 H      2   1   3     2.107438720871   107.72088242   246.28656590
 H      2   1   3     2.099378817194   116.01368547   125.34200547
 H      3   2   1     2.103840383315   110.28781470   202.67308125
 H      4   3   2     1.979276435772   110.45694904   252.89959785
 H      5   4   3     2.108854953046   108.83789121   261.92876555
 H      5   4   3     2.097956432988   112.35313128   141.86805357
 H      8   6   3     1.828219311596   121.65868511     0.25405164

---------------------
BASIS SET INFORMATION
---------------------
There are 4 groups of distinct atoms

 Group   1 Type C   : 7s4p1d contracted to 3s2p1d pattern {511/31/1}
 Group   2 Type N   : 7s4p1d contracted to 3s2p1d pattern {511/31/1}
 Group   3 Type O   : 7s4p1d contracted to 3s2p1d pattern {511/31/1}
 Group   4 Type H   : 4s1p contracted to 2s1p pattern {31/1}

Atom   0C    basis set group =>   1
Atom   1C    basis set group =>   1
Atom   2C    basis set group =>   1
Atom   3N    basis set group =>   2
Atom   4C    basis set group =>   1
Atom   5C    basis set group =>   1
Atom   6O    basis set group =>   3
Atom   7O    basis set group =>   3
Atom   8H    basis set group =>   4
Atom   9H    basis set group =>   4
Atom  10H    basis set group =>   4
Atom  11H    basis set group =>   4
Atom  12H    basis set group =>   4
Atom  13H    basis set group =>   4
Atom  14H    basis set group =>   4
Atom  15H    basis set group =>   4
Atom  16H    basis set group =>   4
-------------------------
ECP PARAMETER INFORMATION
-------------------------



------------------------------------------------------------------------------
                           ORCA GTO INTEGRAL CALCULATION
------------------------------------------------------------------------------

                         BASIS SET STATISTICS AND STARTUP INFO

 # of primitive gaussian shells          ...  141
 # of primitive gaussian functions       ...  255
 # of contracted shells                  ...   75
 # of contracted basis functions         ...  157
 Highest angular momentum                ...    2
 Maximum contraction depth               ...    5
 Integral package used                   ... LIBINT
 Integral threshhold            Thresh   ... 2.500e-011
 Primitive cut-off              TCut     ... 2.500e-012


------------------------------ INTEGRAL EVALUATION ----------------------------


 * One electron integrals 

   ECP integrals                          Pre-screening matrix                    ... done
 Shell pair data                         ... done (   0.001 sec)

Timings:
 Total evaluation time               ...     0.001 sec (   0.000 min)
 One electron matrix time            ...     0.016 sec (   0.000 min) =1600.0%
 Schwartz matrix evaluation time     ...     0.087 sec (   0.001 min) =8700.0%

-------------------------------------------------------------------------------
                                 ORCA SCF
-------------------------------------------------------------------------------

------------
SCF SETTINGS
------------
Hamiltonian:
 Density Functional     Method          .... DFT(GTOs)
 Exchange Functional    Exchange        .... PBE
   PBE kappa parameter   XKappa         ....  0.804000
   PBE mue parameter    XMuePBE         ....  0.219520
 Correlation Functional Correlation     .... PBE
   PBE beta parameter  CBetaPBE         ....  0.066725
 LDA part of GGA corr.  LDAOpt          .... PW91-LDA
 Gradients option       PostSCFGGA      .... off
 Hybrid DFT is turned on
   Fraction HF Exchange ScalHFX         ....  0.250000
   Scaling of DF-GGA-X  ScalDFX         ....  0.750000
   Scaling of DF-GGA-C  ScalDFC         ....  1.000000
   Scaling of DF-LDA-C  ScalLDAC        ....  1.000000
   Perturbative correction              ....  0.000000
   NL short-range parameter             ....  6.900000


General Settings:
 Integral files         IntName         .... proline
 Hartree-Fock type      HFTyp           .... RHF
 Total Charge           Charge          ....    0
 Multiplicity           Mult            ....    1
 Number of Electrons    NEL             ....   62
 Basis Dimension        Dim             ....  157
 Nuclear Repulsion      ENuc            ....    398.2094079504 Eh

Convergence Acceleration:
 DIIS                   CNVDIIS         .... on
   Start iteration      DIISMaxIt       ....    12
   Startup error        DIISStart       ....  0.200000
   # of expansion vecs  DIISMaxEq       ....     5
   Bias factor          DIISBfac        ....   1.050
   Max. coefficient     DIISMaxC        ....  10.000
 Newton-Raphson         CNVNR           .... off
 SOSCF                  CNVSOSCF        .... on
   Start iteration      SOSCFMaxIt      ....   150
   Startup grad/error   SOSCFStart      ....  0.003300
 Level Shifting         CNVShift        .... on
   Level shift para.    LevelShift      ....    0.2500
   Turn off err/grad.   ShiftErr        ....    0.0010
 Zerner damping         CNVZerner       .... off
 Static damping         CNVDamp         .... on
   Fraction old density DampFac         ....    0.7000
   Max. Damping (<1)    DampMax         ....    0.9800
   Min. Damping (>=0)   DampMin         ....    0.0000
   Turn off err/grad.   DampErr         ....    0.1000
 Fernandez-Rico         CNVRico         .... off

SCF Procedure:
 Maximum # iterations   MaxIter         ....   125
 SCF integral mode      SCFMode         .... Direct
   Integral package                     .... LIBINT
 Reset frequeny         DirectResetFreq ....    20
 Integral Threshold     Thresh          .... 2.500e-011 Eh
 Primitive CutOff       TCut            .... 2.500e-012 Eh

Convergence Tolerance:
 Convergence Check Mode ConvCheckMode   .... Total+1el-Energy
 Convergence forced     ConvForced      .... 0
 Energy Change          TolE            .... 1.000e-008 Eh
 1-El. energy change                    .... 1.000e-005 Eh
 Orbital Gradient       TolG            .... 1.000e-005
 Orbital Rotation angle TolX            .... 1.000e-005
 DIIS Error             TolErr          .... 5.000e-007


Diagonalization of the overlap matrix:
Smallest eigenvalue                        ... 1.030e-003
Time for diagonalization                   ...    0.004 sec
Threshold for overlap eigenvalues          ... 1.000e-008
Number of eigenvalues below threshold      ... 0
Time for construction of square roots      ...    0.001 sec
Total time needed                          ...    0.005 sec

-------------------
DFT GRID GENERATION
-------------------

General Integration Accuracy     IntAcc      ...  4.340
Radial Grid Type                 RadialGrid  ... Gauss-Chebyshev
Angular Grid (max. acc.)         AngularGrid ... Lebedev-110
Angular grid pruning method      GridPruning ... 3 (G Style)
Weight generation scheme         WeightScheme... Becke
Basis function cutoff            BFCut       ...   1.0000e-011
Integration weight cutoff        WCut        ...   1.0000e-014
Grids for H and He will be reduced by one unit

# of grid points (after initial pruning)     ...  20560 (   0.0 sec)
# of grid points (after weights+screening)   ...  18921 (   0.0 sec)
nearest neighbour list constructed           ...    0.0 sec
Grid point re-assignment to atoms done       ...    0.0 sec
Grid point division into batches done        ...    0.0 sec
Reduced shell lists constructed in    0.1 sec

Total number of grid points                  ...    18921
Total number of batches                      ...      301
Average number of points per batch           ...       62
Average number of grid points per atom       ...     1113
Average number of shells per batch           ...    56.64 (75.51%)
Average number of basis functions per batch  ...   117.13 (74.61%)
Average number of large shells per batch     ...    44.94 (79.36%)
Average number of large basis fcns per batch ...    90.29 (77.09%)
Maximum spatial batch extension              ...  19.49, 18.56, 21.82 au
Average spatial batch extension              ...   3.55,  3.54,  3.81 au

Time for grid setup =    0.160 sec

------------------------------
INITIAL GUESS: MODEL POTENTIAL
------------------------------
Loading Hartree-Fock densities                     ... done
Calculating cut-offs                               ... done
Setting up the integral package                    ... done
Initializing the effective Hamiltonian             ... done
Starting the Coulomb interaction                   ... done (   0.1 sec)
Reading the grid                                   ... done
Mapping shells                                     ... done
Starting the XC term evaluation                    ... done (   0.1 sec)
  promolecular density results
     # of electrons  =     61.999932431
     EX              =    -51.079977117
     EC              =     -2.077507204
     EX+EC           =    -53.157484320
Transforming the Hamiltonian                       ... done (   0.0 sec)
Diagonalizing the Hamiltonian                      ... done (   0.0 sec)
Back transforming the eigenvectors                 ... done (   0.0 sec)
Now organizing SCF variables                       ... done
                      ------------------
                      INITIAL GUESS DONE (   0.5 sec)
                      ------------------
--------------
SCF ITERATIONS
--------------
ITER       Energy         Delta-E        Max-DP      RMS-DP      [F,P]     Damp
               ***  Starting incremental Fock matrix formation  ***
  0   -400.1523155094   0.000000000000 0.11900384  0.00297280  0.2530542 0.7000
  1   -400.2713138836  -0.118998374271 0.08148175  0.00189516  0.0981398 0.7000
                               ***Turning on DIIS***
  2   -400.3142898776  -0.042975993971 0.08179007  0.00266959  0.0357474 0.0000
  3   -400.3857602093  -0.071470331685 0.06108652  0.00137100  0.0469805 0.0000
  4   -400.4005594825  -0.014799273247 0.01217737  0.00036015  0.0112046 0.0000
  5   -400.4013145073  -0.000755024785 0.00675070  0.00012870  0.0060972 0.0000
                      *** Initiating the SOSCF procedure ***
                           *** Shutting down DIIS ***
                      *** Re-Reading the Fockian *** 
                      *** Removing any level shift *** 
ITER      Energy       Delta-E        Grad      Rot      Max-DP    RMS-DP
  6   -400.40139135  -0.0000768400  0.000265  0.000265  0.001230  0.000051
               *** Restarting incremental Fock matrix formation ***
  7   -400.40139436  -0.0000030108  0.000203  0.000619  0.000976  0.000031
  8   -400.40139236   0.0000019998  0.000417  0.000484  0.000658  0.000019
  9   -400.40139572  -0.0000033627  0.000059  0.000145  0.000253  0.000006
 10   -400.40139561   0.0000001078  0.000096  0.000093  0.000168  0.000004
 11   -400.40139577  -0.0000001573  0.000006  0.000006  0.000032  0.000001
 12   -400.40139577   0.0000000001  0.000006  0.000003  0.000017  0.000000
                  ***Gradient check signals convergence***
              ***Rediagonalizing the Fockian in SOSCF/NRSCF***

               *****************************************************
               *                     SUCCESS                       *
               *           SCF CONVERGED AFTER  13 CYCLES          *
               *****************************************************

Setting up the final grid:

General Integration Accuracy     IntAcc      ...  4.670
Radial Grid Type                 RadialGrid  ... Gauss-Chebyshev
Angular Grid (max. acc.)         AngularGrid ... Lebedev-302
Angular grid pruning method      GridPruning ... 3 (G Style)
Weight generation scheme         WeightScheme... Becke
Basis function cutoff            BFCut       ...   1.0000e-011
Integration weight cutoff        WCut        ...   1.0000e-014
Grids for H and He will be reduced by one unit

# of grid points (after initial pruning)     ...  80242 (   0.0 sec)
# of grid points (after weights+screening)   ...  72578 (   0.1 sec)
nearest neighbour list constructed           ...    0.0 sec
Grid point re-assignment to atoms done       ...    0.0 sec
Grid point division into batches done        ...    0.2 sec
Reduced shell lists constructed in    0.5 sec

Total number of grid points                  ...    72578
Total number of batches                      ...     1143
Average number of points per batch           ...       63
Average number of grid points per atom       ...     4269
Average number of shells per batch           ...    52.10 (69.46%)
Average number of basis functions per batch  ...   106.71 (67.97%)
Average number of large shells per batch     ...    40.33 (77.42%)
Average number of large basis fcns per batch ...    80.14 (75.10%)
Maximum spatial batch extension              ...  19.68, 18.09, 19.59 au
Average spatial batch extension              ...   2.41,  2.40,  2.47 au

Final grid set up in    0.7 sec
Final integration                            ... done (   0.7 sec)
Change in XC energy                          ...     0.000849997
Integrated number of electrons               ...    61.999930711
Previous integrated no of electrons          ...    62.005869848

----------------
TOTAL SCF ENERGY
----------------

Total Energy       :         -400.40054577 Eh          -10895.45276 eV

Components:
Nuclear Repulsion  :          398.20940795 Eh           10835.82887 eV
Electronic Energy  :         -798.60995372 Eh          -21731.28164 eV
One Electron Energy:        -1334.44882751 Eh          -36312.19867 eV
Two Electron Energy:          535.83887379 Eh           14580.91704 eV

Virial components:
Potential Energy   :         -797.01399147 Eh          -21687.85330 eV
Kinetic Energy     :          396.61344569 Eh           10792.40053 eV
Virial Ratio       :            2.00954859


DFT components:
N(Alpha)           :       30.999965355592 electrons
N(Beta)            :       30.999965355592 electrons
N(Total)           :       61.999930711183 electrons
E(X)               :      -38.977757817535 Eh       
E(C)               :       -2.093628849836 Eh       
E(XC)              :      -41.071386667371 Eh       

---------------
SCF CONVERGENCE
---------------

  Last Energy change         ...  -2.7717e-010  Tolerance :  1.0000e-008
  Last MAX-Density change    ...   2.7339e-006  Tolerance :  1.0000e-007
  Last RMS-Density change    ...   8.7894e-008  Tolerance :  5.0000e-009
  Last Orbital Gradient      ...   4.9084e-007  Tolerance :  1.0000e-005
  Last Orbital Rotation      ...   7.0766e-007  Tolerance :  1.0000e-005

             **** THE GBW FILE WAS UPDATED (proline.gbw) ****
             **** DENSITY FILE WAS UPDATED (proline.scfp.tmp) ****
             **** ENERGY FILE WAS UPDATED (proline.en.tmp) ****
----------------
ORBITAL ENERGIES
----------------

  NO   OCC          E(Eh)            E(eV) 
   0   2.0000     -19.250021      -523.8197 
   1   2.0000     -19.185039      -522.0515 
   2   2.0000     -14.394912      -391.7055 
   3   2.0000     -10.355975      -281.8004 
   4   2.0000     -10.281608      -279.7768 
   5   2.0000     -10.261953      -279.2419 
   6   2.0000     -10.240145      -278.6485 
   7   2.0000     -10.234243      -278.4879 
   8   2.0000      -1.106645       -30.1133 
   9   2.0000      -1.018973       -27.7277 
  10   2.0000      -0.954643       -25.9772 
  11   2.0000      -0.790985       -21.5238 
  12   2.0000      -0.762578       -20.7508 
  13   2.0000      -0.660861       -17.9829 
  14   2.0000      -0.622654       -16.9433 
  15   2.0000      -0.598026       -16.2731 
  16   2.0000      -0.547551       -14.8996 
  17   2.0000      -0.527543       -14.3552 
  18   2.0000      -0.480671       -13.0797 
  19   2.0000      -0.464338       -12.6353 
  20   2.0000      -0.449687       -12.2366 
  21   2.0000      -0.433541       -11.7973 
  22   2.0000      -0.408414       -11.1135 
  23   2.0000      -0.399504       -10.8711 
  24   2.0000      -0.374214       -10.1829 
  25   2.0000      -0.363569        -9.8932 
  26   2.0000      -0.359055        -9.7704 
  27   2.0000      -0.347754        -9.4629 
  28   2.0000      -0.319736        -8.7005 
  29   2.0000      -0.287066        -7.8115 
  30   2.0000      -0.246319        -6.7027 
  31   0.0000       0.007979         0.2171 
  32   0.0000       0.044432         1.2091 
  33   0.0000       0.064566         1.7569 
  34   0.0000       0.097184         2.6445 
  35   0.0000       0.105472         2.8700 
  36   0.0000       0.117198         3.1891 
  37   0.0000       0.133401         3.6300 
  38   0.0000       0.138783         3.7765 
  39   0.0000       0.156927         4.2702 
  40   0.0000       0.170035         4.6269 
  41   0.0000       0.190691         5.1890 
  42   0.0000       0.193979         5.2784 
  43   0.0000       0.217104         5.9077 
  44   0.0000       0.241801         6.5797 
  45   0.0000       0.259954         7.0737 
  46   0.0000       0.291865         7.9420 
  47   0.0000       0.351378         9.5615 
  48   0.0000       0.354702         9.6519 
  49   0.0000       0.437974        11.9179 
  50   0.0000       0.444369        12.0919 
  51   0.0000       0.451512        12.2863 
  52   0.0000       0.475034        12.9263 
  53   0.0000       0.483229        13.1493 
  54   0.0000       0.528363        14.3775 
  55   0.0000       0.559597        15.2274 
  56   0.0000       0.565755        15.3950 
  57   0.0000       0.595893        16.2151 
  58   0.0000       0.619873        16.8676 
  59   0.0000       0.627010        17.0618 
  60   0.0000       0.629864        17.1395 
  61   0.0000       0.633225        17.2309 
  62   0.0000       0.639828        17.4106 
  63   0.0000       0.652043        17.7430 
  64   0.0000       0.660762        17.9802 
  65   0.0000       0.678686        18.4680 
  66   0.0000       0.681520        18.5451 
  67   0.0000       0.693387        18.8680 
  68   0.0000       0.705602        19.2004 
  69   0.0000       0.707675        19.2568 
  70   0.0000       0.717883        19.5346 
  71   0.0000       0.738811        20.1041 
  72   0.0000       0.791626        21.5413 
  73   0.0000       0.824752        22.4426 
  74   0.0000       0.846783        23.0421 
  75   0.0000       0.864933        23.5360 
  76   0.0000       0.908357        24.7177 
  77   0.0000       0.947661        25.7872 
  78   0.0000       0.981989        26.7213 
  79   0.0000       1.015230        27.6258 
  80   0.0000       1.042494        28.3677 
  81   0.0000       1.056898        28.7596 
  82   0.0000       1.087819        29.6011 
  83   0.0000       1.131754        30.7966 
  84   0.0000       1.164618        31.6909 
  85   0.0000       1.202511        32.7220 
  86   0.0000       1.239494        33.7283 
  87   0.0000       1.278368        34.7862 
  88   0.0000       1.331319        36.2270 
  89   0.0000       1.352632        36.8070 
  90   0.0000       1.390713        37.8432 
  91   0.0000       1.420377        38.6504 
  92   0.0000       1.426100        38.8061 
  93   0.0000       1.467006        39.9193 
  94   0.0000       1.528811        41.6011 
  95   0.0000       1.538130        41.8547 
  96   0.0000       1.596644        43.4469 
  97   0.0000       1.607245        43.7354 
  98   0.0000       1.645923        44.7878 
  99   0.0000       1.691581        46.0303 
 100   0.0000       1.708255        46.4840 
 101   0.0000       1.723917        46.9102 
 102   0.0000       1.733952        47.1832 
 103   0.0000       1.754783        47.7501 
 104   0.0000       1.765778        48.0493 
 105   0.0000       1.790641        48.7258 
 106   0.0000       1.801114        49.0108 
 107   0.0000       1.824930        49.6589 
 108   0.0000       1.843216        50.1565 
 109   0.0000       1.856567        50.5198 
 110   0.0000       1.882389        51.2224 
 111   0.0000       1.888646        51.3927 
 112   0.0000       1.905956        51.8637 
 113   0.0000       1.926495        52.4226 
 114   0.0000       1.931818        52.5674 
 115   0.0000       1.955782        53.2195 
 116   0.0000       1.994135        54.2632 
 117   0.0000       1.997728        54.3609 
 118   0.0000       2.026098        55.1329 
 119   0.0000       2.068420        56.2846 
 120   0.0000       2.090406        56.8828 
 121   0.0000       2.126521        57.8656 
 122   0.0000       2.169914        59.0464 
 123   0.0000       2.199832        59.8605 
 124   0.0000       2.227453        60.6121 
 125   0.0000       2.245565        61.1049 
 126   0.0000       2.282174        62.1011 
 127   0.0000       2.304735        62.7150 
 128   0.0000       2.374855        64.6231 
 129   0.0000       2.426863        66.0383 
 130   0.0000       2.468152        67.1618 
 131   0.0000       2.497230        67.9531 
 132   0.0000       2.559461        69.6465 
 133   0.0000       2.596077        70.6428 
 134   0.0000       2.647190        72.0337 
 135   0.0000       2.669408        72.6383 
 136   0.0000       2.721046        74.0434 
 137   0.0000       2.734412        74.4071 
 138   0.0000       2.779276        75.6279 
 139   0.0000       2.782809        75.7241 
 140   0.0000       2.802463        76.2589 
 141   0.0000       2.818388        76.6922 
 142   0.0000       2.907862        79.1270 
 143   0.0000       2.927496        79.6612 
 144   0.0000       2.955916        80.4346 
 145   0.0000       2.973866        80.9230 
 146   0.0000       3.017106        82.0996 
 147   0.0000       3.039481        82.7085 
 148   0.0000       3.068173        83.4892 
 149   0.0000       3.097557        84.2888 
 150   0.0000       3.134185        85.2855 
 151   0.0000       3.190730        86.8242 
 152   0.0000       3.307021        89.9886 
 153   0.0000       3.327925        90.5574 
 154   0.0000       3.511476        95.5521 
 155   0.0000       3.655695        99.4765 
 156   0.0000       3.828924       104.1903 

                    ********************************
                    * MULLIKEN POPULATION ANALYSIS *
                    ********************************

-----------------------
MULLIKEN ATOMIC CHARGES
-----------------------
   0 C :   -0.112097
   1 C :   -0.014755
   2 C :   -0.151327
   3 N :   -0.327899
   4 C :    0.083217
   5 C :    0.303706
   6 O :   -0.250638
   7 O :   -0.206881
   8 H :    0.076344
   9 H :    0.053325
  10 H :    0.035618
  11 H :    0.065959
  12 H :    0.052121
  13 H :    0.133277
  14 H :    0.023549
  15 H :    0.044544
  16 H :    0.191937
Sum of atomic charges:   -0.0000000

--------------------------------
MULLIKEN REDUCED ORBITAL CHARGES
--------------------------------
  0 C s       :     3.104797  s :     3.104797
      pz      :     1.044267  p :     2.971276
      px      :     0.956322
      py      :     0.970687
      dz2     :     0.009984  d :     0.036024
      dxz     :     0.004781
      dyz     :     0.005135
      dx2y2   :     0.009130
      dxy     :     0.006994
  1 C s       :     3.059441  s :     3.059441
      pz      :     0.974228  p :     2.919918
      px      :     0.988675
      py      :     0.957014
      dz2     :     0.010505  d :     0.035396
      dxz     :     0.003381
      dyz     :     0.004996
      dx2y2   :     0.007127
      dxy     :     0.009388
  2 C s       :     3.121628  s :     3.121628
      pz      :     1.042156  p :     2.973453
      px      :     0.940751
      py      :     0.990546
      dz2     :     0.011897  d :     0.056247
      dxz     :     0.009381
      dyz     :     0.011266
      dx2y2   :     0.011040
      dxy     :     0.012662
  3 N s       :     3.505367  s :     3.505367
      pz      :     1.496518  p :     3.799341
      px      :     1.234680
      py      :     1.068142
      dz2     :     0.004308  d :     0.023191
      dxz     :     0.003640
      dyz     :     0.004091
      dx2y2   :     0.004356
      dxy     :     0.006797
  4 C s       :     3.017430  s :     3.017430
      pz      :     0.998966  p :     2.848833
      px      :     0.978560
      py      :     0.871307
      dz2     :     0.011178  d :     0.050520
      dxz     :     0.005577
      dyz     :     0.009463
      dx2y2   :     0.011924
      dxy     :     0.012377
  5 C s       :     3.041652  s :     3.041652
      pz      :     0.949686  p :     2.522049
      px      :     0.799182
      py      :     0.773181
      dz2     :     0.031847  d :     0.132593
      dxz     :     0.031594
      dyz     :     0.014679
      dx2y2   :     0.025148
      dxy     :     0.029325
  6 O s       :     3.770644  s :     3.770644
      pz      :     1.608112  p :     4.462033
      px      :     1.387816
      py      :     1.466104
      dz2     :     0.002691  d :     0.017961
      dxz     :     0.005432
      dyz     :     0.002149
      dx2y2   :     0.004090
      dxy     :     0.003599
  7 O s       :     3.677629  s :     3.677629
      pz      :     1.623476  p :     4.517218
      px      :     1.253251
      py      :     1.640492
      dz2     :     0.001442  d :     0.012034
      dxz     :     0.004876
      dyz     :     0.002434
      dx2y2   :     0.001704
      dxy     :     0.001578
  8 H s       :     0.900897  s :     0.900897
      pz      :     0.014832  p :     0.022760
      px      :     0.003922
      py      :     0.004005
  9 H s       :     0.924657  s :     0.924657
      pz      :     0.005535  p :     0.022018
      px      :     0.006662
      py      :     0.009821
 10 H s       :     0.942438  s :     0.942438
      pz      :     0.013930  p :     0.021944
      px      :     0.004050
      py      :     0.003964
 11 H s       :     0.911756  s :     0.911756
      pz      :     0.005444  p :     0.022286
      px      :     0.012381
      py      :     0.004461
 12 H s       :     0.927027  s :     0.927027
      pz      :     0.007473  p :     0.020852
      px      :     0.002958
      py      :     0.010420
 13 H s       :     0.824412  s :     0.824412
      pz      :     0.018670  p :     0.042311
      px      :     0.015260
      py      :     0.008381
 14 H s       :     0.955010  s :     0.955010
      pz      :     0.013806  p :     0.021441
      px      :     0.004085
      py      :     0.003550
 15 H s       :     0.934240  s :     0.934240
      pz      :     0.006795  p :     0.021216
      px      :     0.006564
      py      :     0.007857
 16 H s       :     0.738166  s :     0.738166
      pz      :     0.020006  p :     0.069897
      px      :     0.032038
      py      :     0.017853


                     *******************************
                     * LOEWDIN POPULATION ANALYSIS *
                     *******************************

----------------------
LOEWDIN ATOMIC CHARGES
----------------------
   0 C :   -0.057391
   1 C :   -0.043184
   2 C :   -0.036418
   3 N :   -0.134806
   4 C :    0.016622
   5 C :    0.097502
   6 O :   -0.185851
   7 O :   -0.041394
   8 H :    0.039764
   9 H :    0.034919
  10 H :    0.030029
  11 H :    0.039609
  12 H :    0.032679
  13 H :    0.073263
  14 H :    0.011814
  15 H :    0.023139
  16 H :    0.099703

-------------------------------
LOEWDIN REDUCED ORBITAL CHARGES
-------------------------------
  0 C s       :     2.847299  s :     2.847299
      pz      :     1.073368  p :     3.120812
      px      :     1.018618
      py      :     1.028826
      dz2     :     0.024707  d :     0.089280
      dxz     :     0.010667
      dyz     :     0.011867
      dx2y2   :     0.024895
      dxy     :     0.017144
  1 C s       :     2.848792  s :     2.848792
      pz      :     1.047989  p :     3.104684
      px      :     1.035317
      py      :     1.021378
      dz2     :     0.026180  d :     0.089709
      dxz     :     0.008643
      dyz     :     0.011737
      dx2y2   :     0.018982
      dxy     :     0.024166
  2 C s       :     2.862654  s :     2.862654
      pz      :     1.051957  p :     3.042427
      px      :     0.977716
      py      :     1.012754
      dz2     :     0.030525  d :     0.131336
      dxz     :     0.018974
      dyz     :     0.027839
      dx2y2   :     0.021959
      dxy     :     0.032040
  3 N s       :     3.160468  s :     3.160468
      pz      :     1.517142  p :     3.924218
      px      :     1.278116
      py      :     1.128960
      dz2     :     0.007628  d :     0.050120
      dxz     :     0.008258
      dyz     :     0.007371
      dx2y2   :     0.010531
      dxy     :     0.016334
  4 C s       :     2.850375  s :     2.850375
      pz      :     1.057472  p :     3.015899
      px      :     1.024647
      py      :     0.933779
      dz2     :     0.027452  d :     0.117104
      dxz     :     0.011925
      dyz     :     0.021324
      dx2y2   :     0.029907
      dxy     :     0.026495
  5 C s       :     2.867933  s :     2.867933
      pz      :     1.019477  p :     2.748017
      px      :     0.908592
      py      :     0.819948
      dz2     :     0.069745  d :     0.286548
      dxz     :     0.072696
      dyz     :     0.030105
      dx2y2   :     0.052051
      dxy     :     0.061951
  6 O s       :     3.560020  s :     3.560020
      pz      :     1.646971  p :     4.595624
      px      :     1.478407
      py      :     1.470246
      dz2     :     0.003749  d :     0.030207
      dxz     :     0.011347
      dyz     :     0.002836
      dx2y2   :     0.007021
      dxy     :     0.005255
  7 O s       :     3.408711  s :     3.408711
      pz      :     1.652668  p :     4.607736
      px      :     1.331582
      py      :     1.623486
      dz2     :     0.001850  d :     0.024948
      dxz     :     0.010643
      dyz     :     0.003748
      dx2y2   :     0.004188
      dxy     :     0.004520
  8 H s       :     0.892778  s :     0.892778
      pz      :     0.042612  p :     0.067458
      px      :     0.012494
      py      :     0.012352
  9 H s       :     0.900177  s :     0.900177
      pz      :     0.016124  p :     0.064904
      px      :     0.020116
      py      :     0.028664
 10 H s       :     0.905179  s :     0.905179
      pz      :     0.039692  p :     0.064793
      px      :     0.012312
      py      :     0.012788
 11 H s       :     0.893400  s :     0.893400
      pz      :     0.014992  p :     0.066991
      px      :     0.036622
      py      :     0.015377
 12 H s       :     0.899642  s :     0.899642
      pz      :     0.023184  p :     0.067679
      px      :     0.012337
      py      :     0.032158
 13 H s       :     0.809954  s :     0.809954
      pz      :     0.055188  p :     0.116783
      px      :     0.039938
      py      :     0.021657
 14 H s       :     0.923724  s :     0.923724
      pz      :     0.039732  p :     0.064462
      px      :     0.012632
      py      :     0.012098
 15 H s       :     0.912929  s :     0.912929
      pz      :     0.018923  p :     0.063932
      px      :     0.020688
      py      :     0.024321
 16 H s       :     0.721234  s :     0.721234
      pz      :     0.057117  p :     0.179063
      px      :     0.076378
      py      :     0.045568


                      *****************************
                      * MAYER POPULATION ANALYSIS *
                      *****************************

  NA   - Mulliken gross atomic population
  ZA   - Total nuclear charge
  QA   - Mulliken gross atomic charge
  VA   - Mayer's total valence
  BVA  - Mayer's bonded valence
  FA   - Mayer's free valence

  ATOM       NA         ZA         QA         VA         BVA        FA
  0 C      6.1121     6.0000    -0.1121     4.0176     4.0176    -0.0000
  1 C      6.0148     6.0000    -0.0148     4.0313     4.0313    -0.0000
  2 C      6.1513     6.0000    -0.1513     3.8985     3.8985     0.0000
  3 N      7.3279     7.0000    -0.3279     3.0059     3.0059     0.0000
  4 C      5.9168     6.0000     0.0832     3.9866     3.9866    -0.0000
  5 C      5.6963     6.0000     0.3037     4.1939     4.1939     0.0000
  6 O      8.2506     8.0000    -0.2506     2.2318     2.2318    -0.0000
  7 O      8.2069     8.0000    -0.2069     2.2197     2.2197     0.0000
  8 H      0.9237     1.0000     0.0763     0.9939     0.9939    -0.0000
  9 H      0.9467     1.0000     0.0533     0.9770     0.9770     0.0000
 10 H      0.9644     1.0000     0.0356     0.9737     0.9737    -0.0000
 11 H      0.9340     1.0000     0.0660     0.9940     0.9940    -0.0000
 12 H      0.9479     1.0000     0.0521     0.9765     0.9765     0.0000
 13 H      0.8667     1.0000     0.1333     0.9785     0.9785    -0.0000
 14 H      0.9765     1.0000     0.0235     0.9692     0.9692    -0.0000
 15 H      0.9555     1.0000     0.0445     0.9755     0.9755     0.0000
 16 H      0.8081     1.0000     0.1919     1.0096     1.0096     0.0000

  Mayer bond orders larger than 0.1
B(  0-C ,  1-C ) :   1.0402 B(  0-C ,  4-C ) :   1.0593 B(  0-C ,  8-H ) :   0.9414 
B(  0-C ,  9-H ) :   0.9521 B(  1-C ,  2-C ) :   1.0679 B(  1-C , 10-H ) :   0.9329 
B(  1-C , 11-H ) :   0.9426 B(  2-C ,  3-N ) :   1.0302 B(  2-C ,  5-C ) :   0.8962 
B(  2-C , 12-H ) :   0.9054 B(  3-N ,  4-C ) :   1.0010 B(  3-N , 13-H ) :   0.9374 
B(  4-C , 14-H ) :   0.9533 B(  4-C , 15-H ) :   0.9462 B(  5-C ,  6-O ) :   2.0814 
B(  5-C ,  7-O ) :   1.2063 B(  7-O , 16-H ) :   0.9403 

-------
TIMINGS
-------

Total SCF time: 0 days 0 hours 0 min 40 sec 

Total time                  ....      40.992 sec
Sum of individual times     ....      40.918 sec  ( 99.8%)

Fock matrix formation       ....      39.729 sec  ( 96.9%)
  XC integration            ....       3.655 sec  (  9.2% of F)
    Basis function eval.    ....       1.062 sec  ( 29.1% of XC)
    Density eval.           ....       1.025 sec  ( 28.0% of XC)
    XC-Functional eval.     ....       0.163 sec  (  4.5% of XC)
    XC-Potential eval.      ....       1.142 sec  ( 31.2% of XC)
Diagonalization             ....       0.025 sec  (  0.1%)
Density matrix formation    ....       0.004 sec  (  0.0%)
Population analysis         ....       0.014 sec  (  0.0%)
Initial guess               ....       0.298 sec  (  0.7%)
Orbital Transformation      ....       0.000 sec  (  0.0%)
Orbital Orthonormalization  ....       0.000 sec  (  0.0%)
DIIS solution               ....       0.016 sec  (  0.0%)
SOSCF solution              ....       0.020 sec  (  0.0%)
Grid generation             ....       0.812 sec  (  2.0%)

-------------------------   --------------------
FINAL SINGLE POINT ENERGY      -400.400545774242
-------------------------   --------------------

------------------------------------------------------------------------------
                         ORCA SCF GRADIENT CALCULATION
------------------------------------------------------------------------------

Gradient of the Kohn-Sham DFT energy:
Kohn-Sham wavefunction type      ... RKS
Hartree-Fock exchange scaling    ...    0.250
Number of operators              ...    1
Number of atoms                  ...   17
Basis set dimensions             ...  157
Integral neglect threshold       ... 2.5e-011
Integral primitive cutoff        ... 2.5e-012

Nuclear repulsion gradient       ... done
One Electron Gradient            
  ECP gradient                   ... done
Pre-screening matrix             ... done
Starting the two electron gradient:
Two electron gradient done
Exchange-correlation gradient    ... done

------------------
CARTESIAN GRADIENT
------------------

   1   C   :   -0.000212997    0.006006415    0.008349198
   2   C   :    0.010154422   -0.007215805   -0.003118768
   3   C   :   -0.004842008   -0.011641083   -0.009215198
   4   N   :   -0.010622366   -0.007699480   -0.021288190
   5   C   :   -0.008790329    0.011444284   -0.007801955
   6   C   :    0.029005465    0.001978032    0.022540429
   7   O   :   -0.030721440   -0.010461855   -0.014183158
   8   O   :    0.007898099    0.000979075    0.005404206
   9   H   :    0.002736610    0.001646688   -0.006945461
  10   H   :   -0.005268707   -0.005528939    0.001886182
  11   H   :    0.000790227   -0.003846034    0.006707655
  12   H   :   -0.009617735    0.001667261    0.001274651
  13   H   :   -0.003166398    0.003889271    0.002448435
  14   H   :    0.013686511    0.006859388    0.020856289
  15   H   :   -0.000877618    0.004805719    0.006336709
  16   H   :    0.001323696   -0.004934587   -0.002763167
  17   H   :    0.008524567    0.012051649   -0.010487857

Difference to translation invariance:
           :    0.0000000000   -0.0000000000   -0.0000000000

Norm of the cartesian gradient     ...    0.0742502798
RMS gradient                       ...    0.0103971188
MAX gradient                       ...    0.0307214399

-------
TIMINGS
-------

Total SCF gradient time            ...       19.576 sec

One electron gradient       ....       0.089 sec  (  0.5%)
Prescreening matrices       ....       0.071 sec  (  0.4%)
Two electron gradient       ....      12.952 sec  ( 66.2%)
XC gradient                 ....       6.351 sec  ( 32.4%)
------------------------------------------------------------------------------
                         ORCA GEOMETRY RELAXATION STEP
------------------------------------------------------------------------------

Reading the OPT-File                    .... done
Getting information on internals        .... done
Copying old internal coords+grads       .... done
Making the new internal coordinates     .... (new redundants).... done
Validating the new internal coordinates .... (new redundants).... done
Calculating the B-matrix                .... done
Calculating the G,G- and P matrices     .... done
Transforming gradient to internals      .... done
Projecting the internal gradient        .... done
Number of atoms                         ....  17
Number of internal coordinates          ....  95
Current Energy                          ....  -400.400545774 Eh
Current gradient norm                   ....     0.074250280 Eh/bohr
Maximum allowed component of the step   ....  0.300
Current trust radius                    ....  0.300
Evaluating the initial hessian          ....  (Almloef) done
Projecting the Hessian                  .... done
Forming the augmented Hessian           .... done
Diagonalizing the augmented Hessian     .... done
Last element of RFO vector              ....  0.955660099
Lowest eigenvalues of augmented Hessian:
 -0.012277838  0.011805556  0.013981779  0.016148820  0.017203732
Length of the computed step             ....  0.308134690
Warning: the length of the step is outside the trust region - taking restricted step instead
The input lambda is                     ....    -0.012278
   iter:   1  x=   -0.013254  g=    5.069732 f(x)=     0.004947
   iter:   2  x=   -0.013308  g=    4.571507 f(x)=     0.000249
   iter:   3  x=   -0.013308  g=    4.545759 f(x)=     0.000001
   iter:   4  x=   -0.013308  g=    4.545687 f(x)=     0.000000
   iter:   5  x=   -0.013308  g=    4.545687 f(x)=     0.000000
The output lambda is                    ....    -0.013308 (5 iterations)
The final length of the internal step   ....  0.300000000
Converting the step to cartesian space:
 Initial RMS(Int)=    0.0307793506
Transforming coordinates:
 Iter   0:  RMS(Cart)=    0.0755249205 RMS(Int)=    0.6374043300
 Iter   1:  RMS(Cart)=    0.0040628143 RMS(Int)=    0.0024802591
 Iter   2:  RMS(Cart)=    0.0005270443 RMS(Int)=    0.0002733313
 Iter   3:  RMS(Cart)=    0.0000760374 RMS(Int)=    0.0000529569
 Iter   4:  RMS(Cart)=    0.0000109661 RMS(Int)=    0.0000070289
 Iter   5:  RMS(Cart)=    0.0000017390 RMS(Int)=    0.0000011738
 Iter   6:  RMS(Cart)=    0.0000002464 RMS(Int)=    0.0000001809
 Iter   7:  RMS(Cart)=    0.0000000406 RMS(Int)=    0.0000000251
done
Storing new coordinates                 .... done

                                .--------------------.
          ----------------------|Geometry convergence|-------------------------
          Item                value                   Tolerance       Converged
          ---------------------------------------------------------------------
          RMS gradient        0.0071383335            0.0001000000      NO
          MAX gradient        0.0349077911            0.0003000000      NO
          RMS step            0.0307793506            0.0020000000      NO
          MAX step            0.0887931418            0.0040000000      NO
          ........................................................
          Max(Bonds)      0.0350      Max(Angles)    4.69
          Max(Dihed)        5.09      Max(Improp)    0.00
          ---------------------------------------------------------------------

The optimization has not yet converged - more geometry cycles are needed


    ---------------------------------------------------------------------------
                         Redundant Internal Coordinates
                            (Angstroem and degrees)

        Definition                    Value    dE/dq     Step     New-Value
    ----------------------------------------------------------------------------
     1. B(C   1,C   0)                1.5092 -0.009109  0.0136    1.5228   
     2. B(C   2,C   1)                1.5329  0.005463 -0.0079    1.5250   
     3. B(N   3,C   2)                1.4726 -0.003639  0.0047    1.4773   
     4. B(C   4,C   0)                1.5185 -0.004752  0.0047    1.5231   
     5. B(C   4,N   3)                1.4713 -0.002784  0.0031    1.4744   
     6. B(C   5,C   2)                1.5177 -0.002985  0.0039    1.5216   
     7. B(O   6,C   5)                1.2218  0.034908 -0.0176    1.2043   
     8. B(O   7,C   5)                1.3497  0.021160 -0.0169    1.3328   
     9. B(H   8,C   0)                1.1124  0.006741 -0.0103    1.1021   
    10. B(H   9,C   0)                1.1108  0.007714 -0.0118    1.0990   
    11. B(H  10,C   1)                1.1152  0.006859 -0.0106    1.1046   
    12. B(H  11,C   1)                1.1109  0.008889 -0.0136    1.0974   
    13. B(H  12,C   2)                1.1133  0.004341 -0.0067    1.1066   
    14. B(H  13,N   3)                1.0474  0.025818 -0.0350    1.0124   
    15. B(H  14,C   4)                1.1160  0.005340 -0.0083    1.1077   
    16. B(H  15,C   4)                1.1102  0.005467 -0.0083    1.1019   
    17. B(H  16,O   7)                0.9675  0.004745 -0.0048    0.9626   
    18. A(C   1,C   0,H   8)          109.52  0.002830   -0.50    109.02   
    19. A(H   8,C   0,H   9)          108.87 -0.000073   -0.50    108.37   
    20. A(C   1,C   0,C   4)           99.71 -0.004104    1.37    101.08   
    21. A(C   4,C   0,H   9)          114.10  0.003364   -0.51    113.59   
    22. A(C   1,C   0,H   9)          114.98 -0.000750    0.04    115.02   
    23. A(C   4,C   0,H   8)          109.29 -0.001466    0.22    109.51   
    24. A(C   0,C   1,C   2)          100.85  0.001815    0.07    100.91   
    25. A(H  10,C   1,H  11)          107.86 -0.000185    0.26    108.12   
    26. A(C   2,C   1,H  11)          115.34  0.001503   -0.61    114.73   
    27. A(C   0,C   1,H  11)          116.01 -0.002094   -0.00    116.01   
    28. A(C   2,C   1,H  10)          108.60  0.000024   -0.45    108.15   
    29. A(C   0,C   1,H  10)          107.72 -0.001064    0.78    108.50   
    30. A(C   1,C   2,C   5)          113.60  0.003711   -1.02    112.58   
    31. A(C   5,C   2,H  12)          106.71 -0.000003    0.01    106.72   
    32. A(N   3,C   2,H  12)          112.29  0.001497   -0.64    111.65   
    33. A(C   1,C   2,H  12)          110.29 -0.003193    1.07    111.36   
    34. A(N   3,C   2,C   5)          108.36 -0.002073    0.49    108.85   
    35. A(C   1,C   2,N   3)          105.69  0.000179    0.04    105.73   
    36. A(C   4,N   3,H  13)          109.04 -0.000064    0.28    109.32   
    37. A(C   2,N   3,H  13)          110.46  0.001772    0.21    110.67   
    38. A(C   2,N   3,C   4)          106.17 -0.006007    1.40    107.57   
    39. A(H  14,C   4,H  15)          108.40  0.002919   -0.55    107.85   
    40. A(N   3,C   4,H  15)          112.35 -0.001778   -0.16    112.19   
    41. A(C   0,C   4,H  15)          112.86 -0.003090    0.39    113.26   
    42. A(N   3,C   4,H  14)          108.84 -0.004046    1.19    110.03   
    43. A(C   0,C   4,H  14)          108.24 -0.002254    0.45    108.69   
    44. A(C   0,C   4,N   3)          106.01  0.008065   -1.25    104.76   
    45. A(O   6,C   5,O   7)          118.93 -0.002766    0.41    119.34   
    46. A(C   2,C   5,O   7)          119.87  0.019288   -2.58    117.29   
    47. A(C   2,C   5,O   6)          121.19 -0.016537    2.20    123.39   
    48. A(C   5,O   7,H  16)          121.66  0.031451   -4.69    116.97   
    49. D(H  11,C   1,C   0,C   4)    170.38  0.000334   -1.95    168.43   
    50. D(H  11,C   1,C   0,H   8)     55.79  0.002901   -2.66     53.13   
    51. D(C   2,C   1,C   0,H   8)    -69.56  0.000899   -1.93    -71.49   
    52. D(C   2,C   1,C   0,C   4)     45.04 -0.001668   -1.22     43.82   
    53. D(C   2,C   1,C   0,H   9)    167.51 -0.000682   -0.91    166.59   
    54. D(H  10,C   1,C   0,C   4)    -68.67 -0.002109   -1.03    -69.70   
    55. D(H  10,C   1,C   0,H   8)    176.73  0.000458   -1.74    174.99   
    56. D(H  11,C   1,C   0,H   9)    -67.15  0.001320   -1.64    -68.79   
    57. D(H  10,C   1,C   0,H   9)     53.79 -0.001123   -0.72     53.07   
    58. D(C   5,C   2,C   1,H  10)   -164.01 -0.002417    2.37   -161.64   
    59. D(C   5,C   2,C   1,C   0)     82.94 -0.002053    1.64     84.58   
    60. D(N   3,C   2,C   1,H  11)   -161.53 -0.001267    1.90   -159.63   
    61. D(C   5,C   2,C   1,H  11)    -42.85 -0.001618    1.95    -40.90   
    62. D(N   3,C   2,C   1,H  10)     77.31 -0.002066    2.32     79.63   
    63. D(N   3,C   2,C   1,C   0)    -35.73 -0.001703    1.58    -34.15   
    64. D(H  12,C   2,C   1,H  11)     76.88 -0.001397    2.05     78.93   
    65. D(H  12,C   2,C   1,H  10)    -44.28 -0.002196    2.47    -41.81   
    66. D(H  12,C   2,C   1,C   0)   -157.33 -0.001832    1.74   -155.59   
    67. D(H  13,N   3,C   2,H  12)     13.19 -0.000268   -0.62     12.57   
    68. D(H  13,N   3,C   2,C   5)    130.80 -0.000709   -0.67    130.13   
    69. D(H  13,N   3,C   2,C   1)   -107.10  0.002666   -1.59   -108.69   
    70. D(C   4,N   3,C   2,H  12)    131.27 -0.002878    0.63    131.90   
    71. D(C   4,N   3,C   2,C   5)   -111.12 -0.003320    0.58   -110.54   
    72. D(C   4,N   3,C   2,C   1)     10.98  0.000056   -0.34     10.64   
    73. D(H  14,C   4,C   0,H   9)    -46.53 -0.001039    1.93    -44.60   
    74. D(H  14,C   4,C   0,H   8)   -168.67 -0.002184    2.77   -165.90   
    75. D(H  14,C   4,C   0,C   1)     76.56 -0.002923    2.61     79.18   
    76. D(N   3,C   4,C   0,H   9)   -163.16  0.000616    0.96   -162.19   
    77. D(N   3,C   4,C   0,H   8)     74.70 -0.000529    1.80     76.51   
    78. D(H  15,C   4,C   0,C   1)   -163.46 -0.002722    2.47   -160.99   
    79. D(N   3,C   4,C   0,C   1)    -40.07 -0.001268    1.65    -38.42   
    80. D(H  15,C   4,N   3,C   2)    141.87  0.000651   -1.19    140.68   
    81. D(H  14,C   4,N   3,H  13)     20.94 -0.000817   -0.01     20.93   
    82. D(H  14,C   4,N   3,C   2)    -98.07  0.000462   -1.18    -99.25   
    83. D(C   0,C   4,N   3,H  13)    137.17 -0.001207    0.45    137.62   
    84. D(C   0,C   4,N   3,C   2)     18.16  0.000072   -0.73     17.43   
    85. D(H  15,C   4,C   0,H   9)     73.45 -0.000839    1.78     75.24   
    86. D(H  15,C   4,N   3,H  13)    -99.12 -0.000628   -0.02    -99.14   
    87. D(H  15,C   4,C   0,H   8)    -48.69 -0.001983    2.62    -46.06   
    88. D(O   7,C   5,C   2,H  12)     60.09 -0.001370    4.36     64.45   
    89. D(O   7,C   5,C   2,N   3)    -61.03 -0.002006    4.85    -56.18   
    90. D(O   7,C   5,C   2,C   1)   -178.16 -0.003072    5.09   -173.07   
    91. D(O   6,C   5,C   2,H  12)   -119.12 -0.000062    1.77   -117.34   
    92. D(O   6,C   5,C   2,N   3)    119.76 -0.000697    2.26    122.02   
    93. D(O   6,C   5,C   2,C   1)      2.63 -0.001764    2.50      5.13   
    94. D(H  16,O   7,C   5,O   6)    179.48 -0.003097    4.37    183.85   
    95. D(H  16,O   7,C   5,C   2)      0.25 -0.001704    1.82      2.08   
    ----------------------------------------------------------------------------

         *************************************************************
         *                GEOMETRY OPTIMIZATION CYCLE   2            *
         *************************************************************
---------------------------------
CARTESIAN COORDINATES (ANGSTROEM)
---------------------------------
  C     -0.754866   -1.003487   -0.261467
  C     -1.194171    0.366165    0.238334
  C     -0.026488    1.230503   -0.225250
  N      1.172989    0.374942   -0.116147
  C      0.714868   -1.003313    0.138117
  C     -0.174906    1.687595   -1.668930
  O     -1.154284    1.470536   -2.335219
  O      0.857589    2.328833   -2.215821
  H     -0.837373   -1.028181   -1.360182
  H     -1.321842   -1.851429    0.147613
  H     -1.194912    0.352687    1.342833
  H     -2.180860    0.707790   -0.099270
  H      0.067336    2.145277    0.390382
  H      1.760141    0.679257    0.650402
  H      0.789091   -1.234692    1.218798
  H      1.314397   -1.748718   -0.408740
  H      1.644158    2.434446   -1.671043

----------------------------
CARTESIAN COORDINATES (A.U.)
----------------------------
  NO LB      ZA    FRAG     MASS         X           Y           Z
   0 C     6.0000    0    12.011   -1.426490   -1.896315   -0.494101
   1 C     6.0000    0    12.011   -2.256656    0.691951    0.450385
   2 C     6.0000    0    12.011   -0.050054    2.325313   -0.425662
   3 N     7.0000    0    14.007    2.216627    0.708537   -0.219486
   4 C     6.0000    0    12.011    1.350905   -1.895987    0.261004
   5 C     6.0000    0    12.011   -0.330524    3.189093   -3.153820
   6 O     8.0000    0    15.999   -2.181281    2.778911   -4.412924
   7 O     8.0000    0    15.999    1.620608    4.400857   -4.187295
   8 H     1.0000    0     1.008   -1.582405   -1.942981   -2.570371
   9 H     1.0000    0     1.008   -2.497919   -3.498693    0.278948
  10 H     1.0000    0     1.008   -2.258056    0.666482    2.537586
  11 H     1.0000    0     1.008   -4.121228    1.337529   -0.187593
  12 H     1.0000    0     1.008    0.127247    4.053986    0.737715
  13 H     1.0000    0     1.008    3.326185    1.283609    1.229083
  14 H     1.0000    0     1.008    1.491166   -2.333230    2.303194
  15 H     1.0000    0     1.008    2.483851   -3.304599   -0.772407
  16 H     1.0000    0     1.008    3.107009    4.600436   -3.157813

--------------------------------
INTERNAL COORDINATES (ANGSTROEM)
--------------------------------
 C      0   0   0     0.000000000000     0.00000000     0.00000000
 C      1   0   0     1.522739284808     0.00000000     0.00000000
 C      2   1   0     1.524950774716   100.90186082     0.00000000
 N      3   2   1     1.477373345884   105.72362524   325.83987550
 C      4   3   2     1.474487031517   107.56536058    10.63967127
 C      3   2   1     1.521568679439   112.58280284    84.57596087
 O      6   3   2     1.204258110506   123.37637761     5.12931562
 O      6   3   2     1.332786867513   117.27750386   186.93777423
 H      1   2   3     1.102084832418   109.01268152   288.50504442
 H      1   2   3     1.099005878456   115.02264665   166.58474611
 H      2   1   3     1.104581627735   108.50691196   246.49094775
 H      2   1   3     1.097378097003   116.00394300   124.62221436
 H      3   2   1     1.106624420584   111.36668231   204.40368560
 H      4   3   2     1.012400102417   110.65327517   251.30556687
 H      5   4   3     1.107662363104   110.04017839   260.74755341
 H      5   4   3     1.101870212850   112.19160207   140.67615582
 H      8   6   3     0.962616001604   116.97314702     2.09705074

---------------------------
INTERNAL COORDINATES (A.U.)
---------------------------
 C      0   0   0     0.000000000000     0.00000000     0.00000000
 C      1   0   0     2.877560221650     0.00000000     0.00000000
 C      2   1   0     2.881739331924   100.90186082     0.00000000
 N      3   2   1     2.791831021276   105.72362524   325.83987550
 C      4   3   2     2.786376677586   107.56536058    10.63967127
 C      3   2   1     2.875348098093   112.58280284    84.57596087
 O      6   3   2     2.275718023411   123.37637761     5.12931562
 O      6   3   2     2.518602174487   117.27750386   186.93777423
 H      1   2   3     2.082638509619   109.01268152   288.50504442
 H      1   2   3     2.076820129852   115.02264665   166.58474611
 H      2   1   3     2.087356768980   108.50691196   246.49094775
 H      2   1   3     2.073744068699   116.00394300   124.62221436
 H      3   2   1     2.091217088013   111.36668231   204.40368560
 H      4   3   2     1.913158931522   110.65327517   251.30556687
 H      5   4   3     2.093178515119   110.04017839   260.74755341
 H      5   4   3     2.082232937411   112.19160207   140.67615582
 H      8   6   3     1.819080615162   116.97314702     2.09705074


Diagonalization of the overlap matrix:
Smallest eigenvalue                        ... 1.050e-003
Time for diagonalization                   ...    0.003 sec
Threshold for overlap eigenvalues          ... 1.000e-008
Number of eigenvalues below threshold      ... 0
Time for construction of square roots      ...    0.001 sec
Total time needed                          ...    0.004 sec

-------------------
DFT GRID GENERATION
-------------------

General Integration Accuracy     IntAcc      ...  4.340
Radial Grid Type                 RadialGrid  ... Gauss-Chebyshev
Angular Grid (max. acc.)         AngularGrid ... Lebedev-110
Angular grid pruning method      GridPruning ... 3 (G Style)
Weight generation scheme         WeightScheme... Becke
Basis function cutoff            BFCut       ...   1.0000e-011
Integration weight cutoff        WCut        ...   1.0000e-014
Grids for H and He will be reduced by one unit

# of grid points (after initial pruning)     ...  20560 (   0.0 sec)
# of grid points (after weights+screening)   ...  18907 (   0.0 sec)
nearest neighbour list constructed           ...    0.0 sec
Grid point re-assignment to atoms done       ...    0.0 sec
Grid point division into batches done        ...    0.0 sec
Reduced shell lists constructed in    0.1 sec

Total number of grid points                  ...    18907
Total number of batches                      ...      304
Average number of points per batch           ...       62
Average number of grid points per atom       ...     1112
Average number of shells per batch           ...    56.89 (75.85%)
Average number of basis functions per batch  ...   117.60 (74.90%)
Average number of large shells per batch     ...    44.96 (79.03%)
Average number of large basis fcns per batch ...    90.14 (76.65%)
Maximum spatial batch extension              ...  19.49, 18.69, 21.78 au
Average spatial batch extension              ...   3.68,  3.51,  3.72 au

Time for grid setup =    0.156 sec

--------------
SCF ITERATIONS
--------------
ITER       Energy         Delta-E        Max-DP      RMS-DP      [F,P]     Damp
               ***  Starting incremental Fock matrix formation  ***
  0   -400.4007221169   0.000000000000 0.01637255  0.00031313  0.0456228 0.7000
                      *** Initiating the SOSCF procedure ***
                      *** Re-Reading the Fockian *** 
                      *** Removing any level shift *** 
ITER      Energy       Delta-E        Grad      Rot      Max-DP    RMS-DP
  1   -400.40312833  -0.0024062104  0.001997  0.001997  0.048027  0.000919
               *** Restarting incremental Fock matrix formation ***
  2   -400.40954482  -0.0064164957  0.001386  0.003642  0.006737  0.000243
  3   -400.40971140  -0.0001665743  0.001573  0.003561  0.006712  0.000157
  4   -400.40971626  -0.0000048666  0.001737  0.002165  0.002533  0.000083
  5   -400.40974974  -0.0000334808  0.000289  0.000318  0.001242  0.000037
  6   -400.40974959   0.0000001554  0.000244  0.000177  0.000784  0.000020
  7   -400.40975257  -0.0000029813  0.000038  0.000045  0.000277  0.000006
  8   -400.40975258  -0.0000000133  0.000039  0.000026  0.000134  0.000003
                  ***Gradient check signals convergence***
              ***Rediagonalizing the Fockian in SOSCF/NRSCF***

               *****************************************************
               *                     SUCCESS                       *
               *           SCF CONVERGED AFTER   9 CYCLES          *
               *****************************************************

Setting up the final grid:

General Integration Accuracy     IntAcc      ...  4.670
Radial Grid Type                 RadialGrid  ... Gauss-Chebyshev
Angular Grid (max. acc.)         AngularGrid ... Lebedev-302
Angular grid pruning method      GridPruning ... 3 (G Style)
Weight generation scheme         WeightScheme... Becke
Basis function cutoff            BFCut       ...   1.0000e-011
Integration weight cutoff        WCut        ...   1.0000e-014
Grids for H and He will be reduced by one unit

# of grid points (after initial pruning)     ...  80242 (   0.0 sec)
# of grid points (after weights+screening)   ...  72532 (   0.2 sec)
nearest neighbour list constructed           ...    0.0 sec
Grid point re-assignment to atoms done       ...    0.0 sec
Grid point division into batches done        ...    0.2 sec
Reduced shell lists constructed in    0.6 sec

Total number of grid points                  ...    72532
Total number of batches                      ...     1141
Average number of points per batch           ...       63
Average number of grid points per atom       ...     4267
Average number of shells per batch           ...    52.35 (69.80%)
Average number of basis functions per batch  ...   107.24 (68.31%)
Average number of large shells per batch     ...    40.53 (77.42%)
Average number of large basis fcns per batch ...    80.48 (75.04%)
Maximum spatial batch extension              ...  19.98, 17.61, 18.92 au
Average spatial batch extension              ...   2.42,  2.40,  2.47 au

Final grid set up in    0.8 sec
Final integration                            ... done (   0.9 sec)
Change in XC energy                          ...     0.000664692
Integrated number of electrons               ...    61.999965081
Previous integrated no of electrons          ...    62.005197285
Total Energy       :         -400.40908794 Eh          -10895.68521 eV
  Last Energy change         ...  -4.9071e-008  Tolerance :  1.0000e-008
  Last MAX-Density change    ...   2.7360e-005  Tolerance :  1.0000e-007
             **** THE GBW FILE WAS UPDATED (proline.gbw) ****
             **** DENSITY FILE WAS UPDATED (proline.scfp.tmp) ****
             **** ENERGY FILE WAS UPDATED (proline.en.tmp) ****
Total SCF time: 0 days 0 hours 0 min 31 sec 

-------------------------   --------------------
FINAL SINGLE POINT ENERGY      -400.409087941224
-------------------------   --------------------

------------------------------------------------------------------------------
                         ORCA SCF GRADIENT CALCULATION
------------------------------------------------------------------------------

Gradient of the Kohn-Sham DFT energy:
Kohn-Sham wavefunction type      ... RKS
Hartree-Fock exchange scaling    ...    0.250
Number of operators              ...    1
Number of atoms                  ...   17
Basis set dimensions             ...  157
Integral neglect threshold       ... 2.5e-011
Integral primitive cutoff        ... 2.5e-012

Nuclear repulsion gradient       ... done
One Electron Gradient            
  ECP gradient                   ... done
Pre-screening matrix             ... done
Starting the two electron gradient:
Two electron gradient done
Exchange-correlation gradient    ... done

------------------
CARTESIAN GRADIENT
------------------

   1   C   :   -0.001734919   -0.001320142    0.003331493
   2   C   :   -0.000421391    0.001711513   -0.003314653
   3   C   :   -0.003287013   -0.002719993   -0.004162426
   4   N   :    0.003321032   -0.001217746   -0.001727063
   5   C   :   -0.000159099   -0.000382762   -0.002413397
   6   C   :    0.008112654    0.006079977    0.008109430
   7   O   :   -0.003640095   -0.003489746   -0.004437531
   8   O   :   -0.001175706   -0.007407499    0.009090517
[...]
     28      -0.089793   0.154466   0.106953   0.007214   0.021295   0.002615
     29      -0.089097   0.524452   0.355562   0.083181   0.119884  -0.000897
     30       0.006057  -0.384197   0.508883   0.061345   0.133785   0.062529
     31      -0.079661   0.090614  -0.134966  -0.089572  -0.015015   0.038404
     32       0.001513  -0.098451   0.128330   0.018934   0.031910   0.012656
     33       0.005264  -0.192504   0.227112   0.042605   0.055139   0.016010
     34      -0.097723   0.003511  -0.050827  -0.006005  -0.000513   0.045870
     35      -0.044267   0.374178  -0.506598  -0.093379  -0.119934  -0.047179
     36       0.095380   0.018303  -0.036283  -0.009156   0.033400  -0.031240
     37      -0.096931  -0.009624   0.002432  -0.031113  -0.005658   0.061631
     38       0.033513  -0.002305   0.013098   0.003051   0.028630  -0.051895
     39       0.280922   0.027386  -0.022331   0.023222   0.010500   0.010753
     40      -0.765687  -0.072716   0.006046  -0.122409   0.041727  -0.002648
     41       0.129301   0.013743   0.011165   0.048652  -0.018900  -0.006704
     42      -0.216404   0.005837   0.090692  -0.310934  -0.325403   0.009740
     43      -0.300075  -0.042011  -0.184189   0.227574   0.495448   0.030218
     44       0.013703  -0.006553  -0.056012   0.099017   0.159034   0.013728
     45      -0.145690  -0.014667   0.014948  -0.124794  -0.090844   0.015500
     46      -0.157273  -0.050023  -0.127288   0.138444   0.282880   0.010952
     47      -0.043352   0.019930   0.173687  -0.363078  -0.518740  -0.008550
     48       0.096982   0.006370  -0.003005  -0.489013   0.267347   0.225279
     49      -0.025676  -0.012223  -0.005758   0.033803  -0.034584   0.028307
     50      -0.135319  -0.019818  -0.001941   0.579975  -0.327006  -0.392913
                 42         43         44         45         46         47    
      0       0.000417   0.017106   0.009572  -0.002663   0.006384  -0.033314
      1      -0.002151   0.032119   0.014846  -0.003303   0.010141  -0.057231
      2       0.006555   0.058127   0.013866   0.002101   0.006610   0.062954
      3      -0.000828   0.010669  -0.039952   0.016127  -0.000694  -0.013908
      4       0.000090  -0.002211   0.006161  -0.001855  -0.000128   0.004177
      5       0.001086  -0.021944   0.050741  -0.017885  -0.001632  -0.004841
      6       0.000359  -0.000637   0.001059   0.000070   0.000316   0.000246
      7       0.000275   0.005328  -0.020054  -0.061653  -0.003398   0.001861
      8       0.000756   0.004679  -0.017145  -0.051658  -0.001868   0.001001
      9       0.001524  -0.000233   0.000231   0.000646   0.000091   0.000418
     10       0.000821  -0.000277   0.000376   0.001514  -0.000037   0.000350
     11       0.000230   0.000074   0.000135   0.000797  -0.001081  -0.000123
     12      -0.023606   0.007058   0.003831   0.001032  -0.048543  -0.000790
     13       0.032073  -0.008074  -0.003951  -0.000405   0.040387   0.000292
     14      -0.062441  -0.008089  -0.003254  -0.003019   0.064649   0.008069
     15       0.000761  -0.000121   0.000150   0.000943   0.000220  -0.000290
     16      -0.000360   0.000126   0.000117  -0.001246  -0.000141   0.000281
     17      -0.000059   0.000489  -0.000781   0.000171   0.000071  -0.000098
     18      -0.000310  -0.000004   0.000104  -0.000390  -0.000085   0.000167
     19       0.000198  -0.000003   0.000008   0.000339   0.000069  -0.000082
     20      -0.000081  -0.000073   0.000045  -0.000084  -0.000056   0.000030
     21       0.000780   0.000134   0.000199   0.000347   0.000359  -0.000006
     22      -0.000726  -0.000161  -0.000392  -0.000648  -0.000346  -0.000065
     23       0.000775  -0.000079   0.000463   0.000710   0.000225  -0.000028
     24      -0.000479  -0.022465  -0.004623  -0.000700  -0.005243  -0.017040
     25      -0.006298  -0.060504  -0.016401  -0.000151  -0.009158  -0.039744
     26      -0.063898  -0.844967  -0.246619  -0.000400  -0.125663  -0.412861
     27       0.009013  -0.171858  -0.096105   0.028678  -0.061646   0.404777
     28       0.025331  -0.301918  -0.161004   0.047607  -0.105730   0.705656
     29      -0.010636   0.162026   0.083581  -0.023843   0.052725  -0.342317
     30       0.002170  -0.055935   0.145564  -0.054728  -0.001281   0.005244
     31       0.001720  -0.007007   0.016073  -0.005771  -0.001182  -0.001341
     32      -0.017663   0.295541  -0.790035   0.284788   0.008097  -0.024927
     33       0.008844  -0.062091   0.311090  -0.124398   0.016475   0.151027
     34      -0.003007   0.021638  -0.089412   0.034616  -0.004149  -0.043306
     35       0.006779  -0.041197   0.193294  -0.075597   0.009003   0.085746
     36      -0.001079   0.002018  -0.005527  -0.006753  -0.000130  -0.000120
     37      -0.006860  -0.065080   0.238476   0.714552   0.031827  -0.014327
     38      -0.007110  -0.055732   0.201925   0.608616   0.026491  -0.011979
     39      -0.010092   0.000647  -0.002170  -0.005917   0.002086   0.001334
     40       0.003568   0.000616  -0.003073  -0.009729   0.001544   0.000792
     41      -0.002214  -0.000904  -0.001307  -0.006390   0.002904   0.000435
     42       0.054851   0.002529  -0.000646   0.001794  -0.030106  -0.008023
     43      -0.198207  -0.004510  -0.000503  -0.005687   0.072609   0.016075
     44       0.915198   0.009661  -0.002577   0.021915  -0.299535  -0.070881
     45       0.199013  -0.097436  -0.047136  -0.016243   0.586116   0.025672
     46      -0.188258   0.096531   0.045995   0.014895  -0.546078  -0.023540
     47      -0.182669   0.081010   0.037929   0.013162  -0.466957  -0.021093
     48      -0.018034  -0.000250  -0.006527  -0.014841  -0.007647   0.001384
     49       0.012386   0.001550   0.005057   0.009300   0.006861   0.000368
     50      -0.007316  -0.000406  -0.003617  -0.005706  -0.002965   0.000185
                  48         49         50    
      0      -0.004235  -0.000365  -0.000251
      1      -0.005734  -0.000080  -0.000165
      2       0.013566  -0.000603  -0.000129
      3       0.057502   0.000063  -0.000451
      4      -0.019122   0.000063   0.000107
      5       0.068851  -0.000234  -0.000037
      6       0.000166  -0.002478  -0.001646
      7       0.000892   0.001991   0.001241
      8       0.001252   0.001722   0.001272
      9      -0.000445   0.003113   0.049326
     10       0.000032   0.001647   0.027288
     11       0.000062  -0.001230   0.046227
     12      -0.001213   0.000294  -0.000570
     13       0.000777  -0.002760  -0.001211
     14       0.001933   0.000600   0.001690
     15       0.000959   0.012402  -0.000024
     16      -0.000179  -0.005123   0.000144
     17       0.000196  -0.003526  -0.000232
     18      -0.000464  -0.004034   0.000052
     19       0.000056   0.001875  -0.000005
     20       0.000031   0.000404   0.000033
     21       0.000197   0.036101  -0.000938
     22      -0.000297  -0.033568   0.000888
     23       0.000177   0.035023  -0.000849
     24      -0.003624   0.000696  -0.000375
     25      -0.012554   0.001311  -0.000157
     26      -0.117208   0.006442   0.000060
     27       0.050335   0.002352   0.000021
     28       0.087881   0.000876  -0.000227
     29      -0.043281  -0.000036   0.000341
     30       0.083167  -0.002529   0.000342
     31       0.005629  -0.001918   0.000106
     32      -0.395889   0.005040  -0.000222
     33      -0.754577   0.006948   0.000390
     34       0.216729  -0.000074  -0.000656
     35      -0.429296   0.001543   0.000432
     36      -0.000141   0.004589  -0.002133
     37      -0.014548  -0.016548  -0.008103
     38      -0.013463  -0.009323  -0.007717
     39      -0.000887  -0.015140  -0.649937
     40      -0.000049  -0.008864  -0.371183
     41      -0.000510  -0.016838  -0.658506
     42      -0.002299   0.001032  -0.002891
     43       0.003664   0.009561  -0.000883
     44      -0.014680  -0.017005  -0.007520
     45       0.010330  -0.007140   0.002913
     46      -0.009792   0.010657   0.000547
     47      -0.008902   0.007874  -0.001220
     48      -0.005547  -0.661178   0.015365
     49       0.004838   0.555542  -0.014046
     50      -0.003255  -0.498593   0.014401


-----------
IR SPECTRUM
-----------

 Mode    freq (cm**-1)   T**2         TX         TY         TZ
-------------------------------------------------------------------
   6:        66.80    2.048249  (  0.166592   1.285626   0.606351)
   7:       117.39    0.687498  (  0.368149  -0.315823  -0.672473)
   8:       210.03    6.813957  ( -1.237866  -1.767911   1.468378)
   9:       313.99    5.176356  (  0.552081   1.481785  -1.635811)
  10:       368.68   13.214178  ( -1.275190   1.433395  -3.087628)
  11:       485.49    1.502822  (  0.971833   0.360067   0.654763)
  12:       573.75    5.843685  ( -0.429176  -0.189497   2.371410)
  13:       606.28   10.193931  (  2.445337   1.584864  -1.304784)
  14:       636.72   21.954549  ( -2.908958  -1.226649   3.462346)
  15:       746.77   17.691580  (  2.856396  -1.558384  -2.665337)
  16:       819.71    6.523017  ( -0.105230  -0.454180   2.511108)
  17:       870.61    3.807894  (  1.108260   0.271796  -1.582966)
  18:       890.89    1.872969  (  0.681929  -1.185644   0.046791)
  19:       921.33   11.086297  ( -2.287807  -0.397459   2.386265)
  20:       941.97    3.527482  (  1.779146   0.599323   0.054140)
  21:       973.67    5.863334  (  2.166464   0.842931  -0.677670)
  22:       980.98   19.857976  (  1.829995   3.949572   0.953925)
  23:       991.03   65.304626  ( -5.860060  -5.548975   0.416182)
  24:      1061.50    3.987568  (  1.769917   0.390806  -0.837993)
  25:      1095.84    1.035674  ( -0.998560   0.086458  -0.176287)
  26:      1156.11   32.305492  ( -0.758626   5.195269  -2.176961)
  27:      1171.82   12.516034  (  2.933312  -0.393323  -1.938302)
  28:      1210.32    3.411164  ( -1.754686  -0.377996   0.435156)
  29:      1245.67    9.370918  ( -2.289595   1.763094  -1.010036)
  30:      1263.83   15.488968  (  1.925183  -3.432585  -0.000331)
  31:      1268.05    6.090496  ( -0.947747  -1.695578   1.522263)
  32:      1305.70   26.234602  (  1.577656  -4.109998   2.617923)
  33:      1310.62    4.003635  (  0.859047  -1.481348   1.035026)
  34:      1347.29    0.853377  (  0.294999  -0.211517  -0.849478)
  35:      1376.48    4.237525  (  0.624474   1.535038  -1.221154)
  36:      1426.86   24.785120  (  3.651842  -2.472448  -2.310015)
  37:      1459.92    6.311239  ( -0.283623   1.624809   1.894939)
  38:      1472.81   10.304779  (  3.008901   1.054410  -0.373511)
  39:      1489.41  302.653371  (-10.320807  -2.671467  13.747639)
  40:      1509.06  111.815577  (  5.697592   1.043977  -8.846646)
  41:      1924.89  362.442608  (-13.265126  11.585998  -7.227981)
  42:      3032.63   59.770530  ( -2.622994   4.849164  -5.419967)
  43:      3076.53    7.929071  (  2.100015   1.496099   1.131678)
  44:      3084.42   16.364742  ( -1.281688  -0.383668   3.817698)
  45:      3100.97   14.189940  (  0.933477  -2.822270  -2.313731)
  46:      3113.66   25.479874  ( -2.390333   3.531612   2.700722)
  47:      3152.65   13.638084  ( -1.478089  -2.491472   2.290394)
  48:      3167.47    3.342765  (  0.505736  -0.175410   1.748207)
  49:      3327.52  460.727669  ( -8.321054  13.032447 -14.887682)
  50:      3612.79   17.308002  ( -2.523374  -1.645107  -2.869531)

The first frequency considered to be a vibration is 6
The total number of vibrations considered is 45


--------------------------
THERMOCHEMISTRY AT 298.15K
--------------------------

Temperature         ... 298.15 K
Pressure            ... 1.00 atm
Total Mass          ... 115.13 AMU

Throughout the following assumptions are being made:
  (1) The electronic state is orbitally nondegenerate
  (2) There are no thermally accessible electronically excited states
  (3) Hindered rotations indicated by low frequency modes are not
      treated as such but are treated as vibrations and this may
      cause some error
  (4) All equations used are the standard statistical mechanics
      equations for an ideal gas
  (5) All vibrations are strictly harmonic

freq.      66.80  E(vib)   ...       0.50 
freq.     117.39  E(vib)   ...       0.44 
freq.     210.03  E(vib)   ...       0.34 
freq.     313.99  E(vib)   ...       0.25 
freq.     368.68  E(vib)   ...       0.21 
freq.     485.49  E(vib)   ...       0.15 
freq.     573.75  E(vib)   ...       0.11 
freq.     606.28  E(vib)   ...       0.10 
freq.     636.72  E(vib)   ...       0.09 
freq.     746.77  E(vib)   ...       0.06 
freq.     819.71  E(vib)   ...       0.05 
freq.     870.61  E(vib)   ...       0.04 
freq.     890.89  E(vib)   ...       0.04 
freq.     921.33  E(vib)   ...       0.03 
freq.     941.97  E(vib)   ...       0.03 
freq.     973.67  E(vib)   ...       0.03 
freq.     980.98  E(vib)   ...       0.02 
freq.     991.03  E(vib)   ...       0.02 
freq.    1061.50  E(vib)   ...       0.02 
freq.    1095.84  E(vib)   ...       0.02 
freq.    1156.11  E(vib)   ...       0.01 
freq.    1171.82  E(vib)   ...       0.01 
freq.    1210.32  E(vib)   ...       0.01 
freq.    1245.67  E(vib)   ...       0.01 
freq.    1263.83  E(vib)   ...       0.01 
freq.    1268.05  E(vib)   ...       0.01 
freq.    1305.70  E(vib)   ...       0.01 
freq.    1310.62  E(vib)   ...       0.01 
freq.    1347.29  E(vib)   ...       0.01 
freq.    1376.48  E(vib)   ...       0.01 
freq.    1426.86  E(vib)   ...       0.00 
freq.    1459.92  E(vib)   ...       0.00 
freq.    1472.81  E(vib)   ...       0.00 
freq.    1489.41  E(vib)   ...       0.00 
freq.    1509.06  E(vib)   ...       0.00 
freq.    1924.89  E(vib)   ...       0.00 
freq.    3032.63  E(vib)   ...       0.00 
freq.    3076.53  E(vib)   ...       0.00 
freq.    3084.42  E(vib)   ...       0.00 
freq.    3100.97  E(vib)   ...       0.00 
freq.    3113.66  E(vib)   ...       0.00 
freq.    3152.65  E(vib)   ...       0.00 
freq.    3167.47  E(vib)   ...       0.00 
freq.    3327.52  E(vib)   ...       0.00 
freq.    3612.79  E(vib)   ...       0.00 

------------
INNER ENERGY
------------

The inner energy is: U= E(el) + E(ZPE) + E(vib) + E(rot) + E(trans)
    E(el)   - is the total energy from the electronic structure calculation
              = E(kin-el) + E(nuc-el) + E(el-el) + E(nuc-nuc)
    E(ZPE)  - the the zero temperature vibrational energy from the frequency calculation
    E(vib)  - the the finite temperature correction to E(ZPE) due to population
              of excited vibrational states
    E(rot)  - is the rotational thermal energy
    E(trans)- is the translational thermal energy

Summary of contributions to the inner energy U:
Electronic energy                ...   -400.42642224 Eh
Zero point energy                ...      0.14644275 Eh      91.89 kcal/mol
Thermal vibrational correction   ...      0.00421420 Eh       2.64 kcal/mol
Thermal rotational correction    ...      0.00141627 Eh       0.89 kcal/mol
Thermal translational correction ...      0.00141627 Eh       0.89 kcal/mol
-----------------------------------------------------------------------
Total thermal energy                   -400.27293275 Eh


Summary of corrections to the electronic energy:
(perhaps to be used in another calculation)
Total thermal correction                  0.00704674 Eh       4.42 kcal/mol
Non-thermal (ZPE) correction              0.14644275 Eh      91.89 kcal/mol
-----------------------------------------------------------------------
Total correction                          0.15348949 Eh      96.32 kcal/mol


--------
ENTHALPY
--------

The enthalpy is H = U + kB*T
                kB is Boltzmann's constant
Total free energy                 ...   -400.27293275 Eh 
Thermal Enthalpy correction       ...      0.00094421 Eh       0.59 kcal/mol
-----------------------------------------------------------------------
Total Enthalpy                    ...   -400.27198854 Eh


Vibrational entropy computed according to the QRRHO of S. Grimme
Chem.Eur.J. 2012 18 9955

check  

-------
ENTROPY
-------

The entropy contributions are T*S = T*(S(el)+S(vib)+S(rot)+S(trans)
     S(el)   - electronic entropy
     S(vib)  - vibrational entropy
     S(rot)  - rotational entropy
     S(trans)- translational entropy
The entropies will be listed as mutliplied by the temperature to get
units of energy

Electronic entropy                ...      0.00000000 Eh      0.00 kcal/mol
Vibrational entropy               ...      0.00700584 Eh      4.40 kcal/mol
Rotational entropy                ...      0.01225361 Eh      7.69 kcal/mol
Translational entropy             ...      0.01907081 Eh     11.97 kcal/mol
-----------------------------------------------------------------------
Final entropy term                ...      0.03833025 Eh     24.05 kcal/mol


CAUTION: The rotational entropy is not quite correctly treated here
         because it includes a symmetry number that is not yet correctly
         implemented in ORCA!
For a nonlinear molecule the correct rotational entropy is:
    S(rot) = R*(ln(qrot/sn)+1.5)
    R    = 8.31441 J/mol/K = 1.987191683e-3 kcal/mol/K
    qrot = 289711.2733112
    sn is the rotational symmetry number. We have assumed 3 here
       if it is different for your molecule then you should correct
       the printed rotational entropy by manually evaluating the equation
       as given above

For convenience we print out the resulting values for sn=1 - 12:
 sn= 1  qrot/sn=  289711.2733 T*S(rot)=     8.34 kcal/mol T*S(tot)=    24.70 kcal/mol
 sn= 2  qrot/sn=  144855.6367 T*S(rot)=     7.93 kcal/mol T*S(tot)=    24.29 kcal/mol
 sn= 3  qrot/sn=   96570.4244 T*S(rot)=     7.69 kcal/mol T*S(tot)=    24.05 kcal/mol
 sn= 4  qrot/sn=   72427.8183 T*S(rot)=     7.52 kcal/mol T*S(tot)=    23.88 kcal/mol
 sn= 5  qrot/sn=   57942.2547 T*S(rot)=     7.39 kcal/mol T*S(tot)=    23.75 kcal/mol
 sn= 6  qrot/sn=   48285.2122 T*S(rot)=     7.28 kcal/mol T*S(tot)=    23.64 kcal/mol
 sn= 7  qrot/sn=   41387.3248 T*S(rot)=     7.19 kcal/mol T*S(tot)=    23.55 kcal/mol
 sn= 8  qrot/sn=   36213.9092 T*S(rot)=     7.11 kcal/mol T*S(tot)=    23.47 kcal/mol
 sn= 9  qrot/sn=   32190.1415 T*S(rot)=     7.04 kcal/mol T*S(tot)=    23.40 kcal/mol
 sn=10  qrot/sn=   28971.1273 T*S(rot)=     6.98 kcal/mol T*S(tot)=    23.34 kcal/mol
 sn=11  qrot/sn=   26337.3885 T*S(rot)=     6.92 kcal/mol T*S(tot)=    23.28 kcal/mol
 sn=12  qrot/sn=   24142.6061 T*S(rot)=     6.87 kcal/mol T*S(tot)=    23.23 kcal/mol


-------------------
GIBBS FREE ENTHALPY
-------------------

The Gibbs free enthalpy is G = H - T*S

Total enthalpy                    ...   -400.27198854 Eh 
Total entropy correction          ...     -0.03833025 Eh    -24.05 kcal/mol
-----------------------------------------------------------------------
Final Gibbs free enthalpy         ...   -400.31031879 Eh

For completeness - the Gibbs free enthalpy minus the electronic energy
G-E(el)                           ...      0.11610345 Eh     72.86 kcal/mol


Timings for individual modules:

Sum of individual times         ...     2531.976 sec (=  42.200 min)
GTO integral calculation        ...        8.820 sec (=   0.147 min)   0.3 %
SCF iterations                  ...      515.477 sec (=   8.591 min)  20.4 %
SCF Gradient evaluation         ...      266.899 sec (=   4.448 min)  10.5 %
Geometry relaxation             ...        5.207 sec (=   0.087 min)   0.2 %
Analytical frequency calculation...     1735.573 sec (=  28.926 min)  68.5 %
                             ****ORCA TERMINATED NORMALLY****
TOTAL RUN TIME: 0 days 0 hours 42 minutes 19 seconds 398 msec
